
     Program BANDS v.6.4.1 starts on  22May2024 at 17:28:36 

     This program is part of the open-source Quantum ESPRESSO suite
     for quantum simulation of materials; please cite
         "P. Giannozzi et al., J. Phys.:Condens. Matter 21 395502 (2009);
         "P. Giannozzi et al., J. Phys.:Condens. Matter 29 465901 (2017);
          URL http://www.quantum-espresso.org", 
     in publications or presentations arising from this work. More details at
     http://www.quantum-espresso.org/quote

     Parallel version (MPI & OpenMP), running on       8 processor cores
     Number of MPI processes:                 1
     Threads/MPI process:                     8

     MPI processes distributed on     1 nodes

     Reading data from directory:
     ./out/\aiida.save\

     IMPORTANT: XC functional enforced from input :
     Exchange-correlation      = PBE ( 1  4  3  4 0 0)
     Any further DFT definition will be discarded
     Please, verify this is what you really want

               file C.pbe-n-kjpaw_psl.1.0.0.UPF: wavefunction(s)  2S 2P renormalized

     G-vector sticks info
     --------------------
     sticks:   dense  smooth     PW     G-vecs:    dense   smooth      PW
     Sum         283     283     85                18741    18741    3357


     Check: negative core charge=   -0.000376

     negative rho (up, down):  8.764E-03 0.000E+00
     high-symmetry point:  0.0000 0.0000 0.0000   x coordinate   0.0000
     high-symmetry point:  0.5000 0.2887 0.0000   x coordinate   0.5774
     high-symmetry point:  0.3333 0.5773 0.0000   x coordinate   0.9107
     high-symmetry point:  0.0000 0.0000 0.0000   x coordinate   0.9107

     Plottable bands (eV) written to file bands.dat.gnu
     Bands written to file bands.dat

 **************************************************************************

                    xk=(   0.00000,   0.00000,   0.00000  )

     point group C_1 (1)    
     there are  1 classes
     the character table:

       E    
A      1.00

     the symmetry operations in each class and the name of the first element:

     E        1
                                                                 

     Band symmetry, C_1 (1)     point group:

     e(  1 -  1) =    -43.63296  eV     1   --> A              
     e(  2 -  2) =    -43.62372  eV     1   --> A              
     e(  3 -  3) =    -43.61139  eV     1   --> A              
     e(  4 -  4) =    -43.60122  eV     1   --> A              
     e(  5 -  5) =    -43.44356  eV     1   --> A              
     e(  6 -  6) =    -43.43627  eV     1   --> A              
     e(  7 -  7) =    -20.22397  eV     1   --> A              
     e(  8 -  8) =    -20.09634  eV     1   --> A              
     e(  9 -  9) =    -20.09555  eV     1   --> A              
     e( 10 - 10) =    -19.90406  eV     1   --> A              
     e( 11 - 12) =    -19.70250  eV     2   -->   2 A              
     e( 13 - 14) =    -19.69721  eV     2   -->   2 A              
     e( 15 - 16) =    -19.68589  eV     2   -->   2 A              
     e( 17 - 17) =    -19.68196  eV     1   --> A              
     e( 18 - 19) =    -19.68006  eV     2   -->   2 A              
     e( 20 - 20) =    -19.61749  eV     1   --> A              
     e( 21 - 22) =    -19.53303  eV     2   -->   2 A              
     e( 23 - 24) =    -19.52581  eV     2   -->   2 A              
     e( 25 - 25) =      1.26494  eV     1   --> A              
     e( 26 - 26) =      1.33355  eV     1   --> A              
     e( 27 - 27) =      2.67794  eV     1   --> A              
     e( 28 - 28) =      2.80495  eV     1   --> A              
     e( 29 - 29) =      7.49222  eV     1   --> A              
     e( 30 - 30) =      7.86218  eV     1   --> A              
     e( 31 - 31) =      9.72707  eV     1   --> A              
     e( 32 - 33) =     10.27476  eV     2   -->   2 A              
     e( 34 - 35) =     10.31252  eV     2   -->   2 A              
     e( 36 - 36) =     10.59598  eV     1   --> A              
     e( 37 - 37) =     11.27209  eV     1   --> A              
     e( 38 - 39) =     11.41544  eV     2   -->   2 A              
     e( 40 - 41) =     11.50045  eV     2   -->   2 A              
     e( 42 - 42) =     11.69371  eV     1   --> A              
     e( 43 - 44) =     13.66862  eV     2   -->   2 A              
     e( 45 - 45) =     13.69585  eV     1   --> A              
     e( 46 - 47) =     13.79774  eV     2   -->   2 A              
     e( 48 - 48) =     13.95306  eV     1   --> A              
     e( 49 - 50) =     14.59104  eV     2   -->   2 A              
     e( 51 - 52) =     14.73316  eV     2   -->   2 A              
     e( 53 - 53) =     14.94284  eV     1   --> A              

 **************************************************************************

 **************************************************************************

                    xk=(   0.02500,   0.01443,   0.00000  )

     Band symmetry, C_1 (1)     point group:

     e(  1 -  1) =    -43.63270  eV     1   --> A              
     e(  2 -  2) =    -43.62363  eV     1   --> A              
     e(  3 -  3) =    -43.61111  eV     1   --> A              
     e(  4 -  4) =    -43.60086  eV     1   --> A              
     e(  5 -  5) =    -43.44343  eV     1   --> A              
     e(  6 -  6) =    -43.43610  eV     1   --> A              
     e(  7 -  7) =    -20.22317  eV     1   --> A              
     e(  8 -  8) =    -20.09620  eV     1   --> A              
     e(  9 -  9) =    -20.09479  eV     1   --> A              
     e( 10 - 10) =    -19.90412  eV     1   --> A              
     e( 11 - 11) =    -19.70481  eV     1   --> A              
     e( 12 - 12) =    -19.70311  eV     1   --> A              
     e( 13 - 13) =    -19.70301  eV     1   --> A              
     e( 14 - 14) =    -19.69769  eV     1   --> A              
     e( 15 - 15) =    -19.68801  eV     1   --> A              
     e( 16 - 16) =    -19.68651  eV     1   --> A              
     e( 17 - 17) =    -19.68278  eV     1   --> A              
     e( 18 - 18) =    -19.68053  eV     1   --> A              
     e( 19 - 19) =    -19.67810  eV     1   --> A              
     e( 20 - 20) =    -19.61700  eV     1   --> A              
     e( 21 - 21) =    -19.53481  eV     1   --> A              
     e( 22 - 22) =    -19.53335  eV     1   --> A              
     e( 23 - 23) =    -19.52759  eV     1   --> A              
     e( 24 - 24) =    -19.52615  eV     1   --> A              
     e( 25 - 25) =      1.27541  eV     1   --> A              
     e( 26 - 26) =      1.34373  eV     1   --> A              
     e( 27 - 27) =      2.68299  eV     1   --> A              
     e( 28 - 28) =      2.80896  eV     1   --> A              
     e( 29 - 29) =      7.50534  eV     1   --> A              
     e( 30 - 30) =      7.87483  eV     1   --> A              
     e( 31 - 31) =      9.70034  eV     1   --> A              
     e( 32 - 32) =     10.27627  eV     1   --> A              
     e( 33 - 33) =     10.27906  eV     1   --> A              
     e( 34 - 34) =     10.29685  eV     1   --> A              
     e( 35 - 35) =     10.31653  eV     1   --> A              
     e( 36 - 36) =     10.62415  eV     1   --> A              
     e( 37 - 37) =     11.20379  eV     1   --> A              
     e( 38 - 38) =     11.41398  eV     1   --> A              
     e( 39 - 39) =     11.46247  eV     1   --> A              
     e( 40 - 40) =     11.47160  eV     1   --> A              
     e( 41 - 41) =     11.49742  eV     1   --> A              
     e( 42 - 42) =     11.69627  eV     1   --> A              
     e( 43 - 43) =     13.65871  eV     1   --> A              
     e( 44 - 44) =     13.67551  eV     1   --> A              
     e( 45 - 45) =     13.69129  eV     1   --> A              
     e( 46 - 46) =     13.78294  eV     1   --> A              
     e( 47 - 47) =     13.80704  eV     1   --> A              
     e( 48 - 48) =     13.95391  eV     1   --> A              
     e( 49 - 49) =     14.57179  eV     1   --> A              
     e( 50 - 50) =     14.57627  eV     1   --> A              
     e( 51 - 51) =     14.72646  eV     1   --> A              
     e( 52 - 52) =     14.75378  eV     1   --> A              
     e( 53 - 53) =     14.89707  eV     1   --> A              

 **************************************************************************

 **************************************************************************

                    xk=(   0.05000,   0.02887,   0.00000  )

     Band symmetry, C_1 (1)     point group:

     e(  1 -  1) =    -43.63190  eV     1   --> A              
     e(  2 -  2) =    -43.62288  eV     1   --> A              
     e(  3 -  3) =    -43.61011  eV     1   --> A              
     e(  4 -  4) =    -43.60002  eV     1   --> A              
     e(  5 -  5) =    -43.44280  eV     1   --> A              
     e(  6 -  6) =    -43.43553  eV     1   --> A              
     e(  7 -  7) =    -20.22078  eV     1   --> A              
     e(  8 -  8) =    -20.09581  eV     1   --> A              
     e(  9 -  9) =    -20.09256  eV     1   --> A              
     e( 10 - 10) =    -19.90433  eV     1   --> A              
     e( 11 - 11) =    -19.71588  eV     1   --> A              
     e( 12 - 12) =    -19.71048  eV     1   --> A              
     e( 13 - 13) =    -19.70494  eV     1   --> A              
     e( 14 - 14) =    -19.69912  eV     1   --> A              
     e( 15 - 15) =    -19.69444  eV     1   --> A              
     e( 16 - 16) =    -19.69015  eV     1   --> A              
     e( 17 - 17) =    -19.68835  eV     1   --> A              
     e( 18 - 18) =    -19.68193  eV     1   --> A              
     e( 19 - 19) =    -19.67249  eV     1   --> A              
     e( 20 - 20) =    -19.61581  eV     1   --> A              
     e( 21 - 21) =    -19.54015  eV     1   --> A              
     e( 22 - 22) =    -19.53435  eV     1   --> A              
     e( 23 - 23) =    -19.53289  eV     1   --> A              
     e( 24 - 24) =    -19.52714  eV     1   --> A              
     e( 25 - 25) =      1.30673  eV     1   --> A              
     e( 26 - 26) =      1.37406  eV     1   --> A              
     e( 27 - 27) =      2.69794  eV     1   --> A              
     e( 28 - 28) =      2.82085  eV     1   --> A              
     e( 29 - 29) =      7.54686  eV     1   --> A              
     e( 30 - 30) =      7.91311  eV     1   --> A              
     e( 31 - 31) =      9.63281  eV     1   --> A              
     e( 32 - 32) =     10.19558  eV     1   --> A              
     e( 33 - 33) =     10.29131  eV     1   --> A              
     e( 34 - 34) =     10.32835  eV     1   --> A              
     e( 35 - 35) =     10.34950  eV     1   --> A              
     e( 36 - 36) =     10.68326  eV     1   --> A              
     e( 37 - 37) =     11.07480  eV     1   --> A              
     e( 38 - 38) =     11.39455  eV     1   --> A              
     e( 39 - 39) =     11.40770  eV     1   --> A              
     e( 40 - 40) =     11.48962  eV     1   --> A              
     e( 41 - 41) =     11.52264  eV     1   --> A              
     e( 42 - 42) =     11.70765  eV     1   --> A              
     e( 43 - 43) =     13.62314  eV     1   --> A              
     e( 44 - 44) =     13.68437  eV     1   --> A              
     e( 45 - 45) =     13.69719  eV     1   --> A              
     e( 46 - 46) =     13.73603  eV     1   --> A              
     e( 47 - 47) =     13.83349  eV     1   --> A              
     e( 48 - 48) =     13.95771  eV     1   --> A              
     e( 49 - 49) =     14.51110  eV     1   --> A              
     e( 50 - 50) =     14.53591  eV     1   --> A              
     e( 51 - 51) =     14.73499  eV     1   --> A              
     e( 52 - 52) =     14.79625  eV     1   --> A              
     e( 53 - 53) =     14.81257  eV     1   --> A              

 **************************************************************************

 **************************************************************************

                    xk=(   0.07500,   0.04330,   0.00000  )

     Band symmetry, C_1 (1)     point group:

     e(  1 -  1) =    -43.63028  eV     1   --> A              
     e(  2 -  2) =    -43.62140  eV     1   --> A              
     e(  3 -  3) =    -43.60853  eV     1   --> A              
     e(  4 -  4) =    -43.59870  eV     1   --> A              
     e(  5 -  5) =    -43.44164  eV     1   --> A              
     e(  6 -  6) =    -43.43436  eV     1   --> A              
     e(  7 -  7) =    -20.21686  eV     1   --> A              
     e(  8 -  8) =    -20.09520  eV     1   --> A              
     e(  9 -  9) =    -20.08890  eV     1   --> A              
     e( 10 - 10) =    -19.90473  eV     1   --> A              
     e( 11 - 11) =    -19.73159  eV     1   --> A              
     e( 12 - 12) =    -19.72058  eV     1   --> A              
     e( 13 - 13) =    -19.70793  eV     1   --> A              
     e( 14 - 14) =    -19.70535  eV     1   --> A              
     e( 15 - 15) =    -19.70145  eV     1   --> A              
     e( 16 - 16) =    -19.70119  eV     1   --> A              
     e( 17 - 17) =    -19.69137  eV     1   --> A              
     e( 18 - 18) =    -19.68423  eV     1   --> A              
     e( 19 - 19) =    -19.66785  eV     1   --> A              
     e( 20 - 20) =    -19.61454  eV     1   --> A              
     e( 21 - 21) =    -19.54888  eV     1   --> A              
     e( 22 - 22) =    -19.54146  eV     1   --> A              
     e( 23 - 23) =    -19.53598  eV     1   --> A              
     e( 24 - 24) =    -19.52878  eV     1   --> A              
     e( 25 - 25) =      1.35839  eV     1   --> A              
     e( 26 - 26) =      1.42413  eV     1   --> A              
     e( 27 - 27) =      2.72225  eV     1   --> A              
     e( 28 - 28) =      2.84009  eV     1   --> A              
     e( 29 - 29) =      7.61550  eV     1   --> A              
     e( 30 - 30) =      7.97692  eV     1   --> A              
     e( 31 - 31) =      9.54563  eV     1   --> A              
     e( 32 - 32) =     10.09871  eV     1   --> A              
     e( 33 - 33) =     10.31238  eV     1   --> A              
     e( 34 - 34) =     10.34910  eV     1   --> A              
     e( 35 - 35) =     10.41150  eV     1   --> A              
     e( 36 - 36) =     10.74693  eV     1   --> A              
     e( 37 - 37) =     10.92283  eV     1   --> A              
     e( 38 - 38) =     11.27108  eV     1   --> A              
     e( 39 - 39) =     11.39814  eV     1   --> A              
     e( 40 - 40) =     11.47728  eV     1   --> A              
     e( 41 - 41) =     11.56304  eV     1   --> A              
     e( 42 - 42) =     11.73360  eV     1   --> A              
     e( 43 - 43) =     13.55962  eV     1   --> A              
     e( 44 - 44) =     13.65563  eV     1   --> A              
     e( 45 - 45) =     13.67677  eV     1   --> A              
     e( 46 - 46) =     13.73302  eV     1   --> A              
     e( 47 - 47) =     13.87696  eV     1   --> A              
     e( 48 - 48) =     13.96663  eV     1   --> A              
     e( 49 - 49) =     14.39963  eV     1   --> A              
     e( 50 - 50) =     14.50576  eV     1   --> A              
     e( 51 - 51) =     14.71652  eV     1   --> A              
     e( 52 - 52) =     14.76944  eV     1   --> A              
     e( 53 - 53) =     14.83286  eV     1   --> A              

 **************************************************************************

 **************************************************************************

                    xk=(   0.10000,   0.05773,   0.00000  )

     Band symmetry, C_1 (1)     point group:

     e(  1 -  1) =    -43.62836  eV     1   --> A              
     e(  2 -  2) =    -43.61975  eV     1   --> A              
     e(  3 -  3) =    -43.60650  eV     1   --> A              
     e(  4 -  4) =    -43.59692  eV     1   --> A              
     e(  5 -  5) =    -43.44035  eV     1   --> A              
     e(  6 -  6) =    -43.43306  eV     1   --> A              
     e(  7 -  7) =    -20.21148  eV     1   --> A              
     e(  8 -  8) =    -20.09442  eV     1   --> A              
     e(  9 -  9) =    -20.08394  eV     1   --> A              
     e( 10 - 10) =    -19.90545  eV     1   --> A              
     e( 11 - 11) =    -19.75015  eV     1   --> A              
     e( 12 - 12) =    -19.73433  eV     1   --> A              
     e( 13 - 13) =    -19.72042  eV     1   --> A              
     e( 14 - 14) =    -19.71516  eV     1   --> A              
     e( 15 - 15) =    -19.71201  eV     1   --> A              
     e( 16 - 16) =    -19.70465  eV     1   --> A              
     e( 17 - 17) =    -19.69547  eV     1   --> A              
     e( 18 - 18) =    -19.68736  eV     1   --> A              
     e( 19 - 19) =    -19.66444  eV     1   --> A              
     e( 20 - 20) =    -19.61366  eV     1   --> A              
     e( 21 - 21) =    -19.56073  eV     1   --> A              
     e( 22 - 22) =    -19.55297  eV     1   --> A              
     e( 23 - 23) =    -19.53821  eV     1   --> A              
     e( 24 - 24) =    -19.53102  eV     1   --> A              
     e( 25 - 25) =      1.42954  eV     1   --> A              
     e( 26 - 26) =      1.49307  eV     1   --> A              
     e( 27 - 27) =      2.75482  eV     1   --> A              
     e( 28 - 28) =      2.86594  eV     1   --> A              
     e( 29 - 29) =      7.70908  eV     1   --> A              
     e( 30 - 30) =      8.06296  eV     1   --> A              
     e( 31 - 31) =      9.45063  eV     1   --> A              
     e( 32 - 32) =      9.99342  eV     1   --> A              
     e( 33 - 33) =     10.33771  eV     1   --> A              
     e( 34 - 34) =     10.37428  eV     1   --> A              
     e( 35 - 35) =     10.45540  eV     1   --> A              
     e( 36 - 36) =     10.76163  eV     1   --> A              
     e( 37 - 37) =     10.80441  eV     1   --> A              
     e( 38 - 38) =     11.10878  eV     1   --> A              
     e( 39 - 39) =     11.38266  eV     1   --> A              
     e( 40 - 40) =     11.45978  eV     1   --> A              
     e( 41 - 41) =     11.58502  eV     1   --> A              
     e( 42 - 42) =     11.76902  eV     1   --> A              
     e( 43 - 43) =     13.46748  eV     1   --> A              
     e( 44 - 44) =     13.54509  eV     1   --> A              
     e( 45 - 45) =     13.66738  eV     1   --> A              
     e( 46 - 46) =     13.78208  eV     1   --> A              
     e( 47 - 47) =     13.93700  eV     1   --> A              
     e( 48 - 48) =     13.97845  eV     1   --> A              
     e( 49 - 49) =     14.27172  eV     1   --> A              
     e( 50 - 50) =     14.48975  eV     1   --> A              
     e( 51 - 51) =     14.61871  eV     1   --> A              
     e( 52 - 52) =     14.81428  eV     1   --> A              
     e( 53 - 53) =     14.81619  eV     1   --> A              

 **************************************************************************

 **************************************************************************

                    xk=(   0.12500,   0.07217,   0.00000  )

     Band symmetry, C_1 (1)     point group:

     e(  1 -  1) =    -43.62584  eV     1   --> A              
     e(  2 -  2) =    -43.61766  eV     1   --> A              
     e(  3 -  3) =    -43.60393  eV     1   --> A              
     e(  4 -  4) =    -43.59478  eV     1   --> A              
     e(  5 -  5) =    -43.43866  eV     1   --> A              
     e(  6 -  6) =    -43.43136  eV     1   --> A              
     e(  7 -  7) =    -20.20477  eV     1   --> A              
     e(  8 -  8) =    -20.09355  eV     1   --> A              
     e(  9 -  9) =    -20.07781  eV     1   --> A              
     e( 10 - 10) =    -19.90661  eV     1   --> A              
     e( 11 - 11) =    -19.77129  eV     1   --> A              
     e( 12 - 12) =    -19.75139  eV     1   --> A              
     e( 13 - 13) =    -19.73867  eV     1   --> A              
     e( 14 - 14) =    -19.73197  eV     1   --> A              
     e( 15 - 15) =    -19.71707  eV     1   --> A              
     e( 16 - 16) =    -19.70862  eV     1   --> A              
     e( 17 - 17) =    -19.70055  eV     1   --> A              
     e( 18 - 18) =    -19.69126  eV     1   --> A              
     e( 19 - 19) =    -19.66213  eV     1   --> A              
     e( 20 - 20) =    -19.61342  eV     1   --> A              
     e( 21 - 21) =    -19.57535  eV     1   --> A              
     e( 22 - 22) =    -19.56692  eV     1   --> A              
     e( 23 - 23) =    -19.54100  eV     1   --> A              
     e( 24 - 24) =    -19.53382  eV     1   --> A              
     e( 25 - 25) =      1.51907  eV     1   --> A              
     e( 26 - 26) =      1.57986  eV     1   --> A              
     e( 27 - 27) =      2.79437  eV     1   --> A              
     e( 28 - 28) =      2.89733  eV     1   --> A              
     e( 29 - 29) =      7.82640  eV     1   --> A              
     e( 30 - 30) =      8.16994  eV     1   --> A              
     e( 31 - 31) =      9.35735  eV     1   --> A              
     e( 32 - 32) =      9.88720  eV     1   --> A              
     e( 33 - 33) =     10.36808  eV     1   --> A              
     e( 34 - 34) =     10.40419  eV     1   --> A              
     e( 35 - 35) =     10.42955  eV     1   --> A              
     e( 36 - 36) =     10.64534  eV     1   --> A              
     e( 37 - 37) =     10.85053  eV     1   --> A              
     e( 38 - 38) =     10.91844  eV     1   --> A              
     e( 39 - 39) =     11.36292  eV     1   --> A              
     e( 40 - 40) =     11.43709  eV     1   --> A              
     e( 41 - 41) =     11.60125  eV     1   --> A              
     e( 42 - 42) =     11.80616  eV     1   --> A              
     e( 43 - 43) =     13.34609  eV     1   --> A              
     e( 44 - 44) =     13.41077  eV     1   --> A              
     e( 45 - 45) =     13.65862  eV     1   --> A              
     e( 46 - 46) =     13.84448  eV     1   --> A              
     e( 47 - 47) =     13.98988  eV     1   --> A              
     e( 48 - 48) =     14.01304  eV     1   --> A              
     e( 49 - 49) =     14.15047  eV     1   --> A              
     e( 50 - 50) =     14.49236  eV     1   --> A              
     e( 51 - 51) =     14.52995  eV     1   --> A              
     e( 52 - 52) =     14.82013  eV     1   --> A              
     e( 53 - 53) =     14.85962  eV     1   --> A              

 **************************************************************************

 **************************************************************************

                    xk=(   0.15000,   0.08660,   0.00000  )

     Band symmetry, C_1 (1)     point group:

     e(  1 -  1) =    -43.62281  eV     1   --> A              
     e(  2 -  2) =    -43.61509  eV     1   --> A              
     e(  3 -  3) =    -43.60090  eV     1   --> A              
     e(  4 -  4) =    -43.59230  eV     1   --> A              
     e(  5 -  5) =    -43.43661  eV     1   --> A              
     e(  6 -  6) =    -43.42933  eV     1   --> A              
     e(  7 -  7) =    -20.19686  eV     1   --> A              
     e(  8 -  8) =    -20.09267  eV     1   --> A              
     e(  9 -  9) =    -20.07075  eV     1   --> A              
     e( 10 - 10) =    -19.90843  eV     1   --> A              
     e( 11 - 11) =    -19.79467  eV     1   --> A              
     e( 12 - 12) =    -19.77135  eV     1   --> A              
     e( 13 - 13) =    -19.75921  eV     1   --> A              
     e( 14 - 14) =    -19.75138  eV     1   --> A              
     e( 15 - 15) =    -19.72295  eV     1   --> A              
     e( 16 - 16) =    -19.71327  eV     1   --> A              
     e( 17 - 17) =    -19.70647  eV     1   --> A              
     e( 18 - 18) =    -19.69582  eV     1   --> A              
     e( 19 - 19) =    -19.66076  eV     1   --> A              
     e( 20 - 20) =    -19.61394  eV     1   --> A              
     e( 21 - 21) =    -19.59231  eV     1   --> A              
     e( 22 - 22) =    -19.58271  eV     1   --> A              
     e( 23 - 23) =    -19.54429  eV     1   --> A              
     e( 24 - 24) =    -19.53711  eV     1   --> A              
     e( 25 - 25) =      1.62554  eV     1   --> A              
     e( 26 - 26) =      1.68307  eV     1   --> A              
     e( 27 - 27) =      2.83940  eV     1   --> A              
     e( 28 - 28) =      2.93310  eV     1   --> A              
     e( 29 - 29) =      7.96501  eV     1   --> A              
     e( 30 - 30) =      8.29470  eV     1   --> A              
     e( 31 - 31) =      9.27144  eV     1   --> A              
     e( 32 - 32) =      9.78358  eV     1   --> A              
     e( 33 - 33) =     10.27868  eV     1   --> A              
     e( 34 - 34) =     10.40066  eV     1   --> A              
     e( 35 - 35) =     10.43618  eV     1   --> A              
     e( 36 - 36) =     10.62768  eV     1   --> A              
     e( 37 - 37) =     10.70725  eV     1   --> A              
     e( 38 - 38) =     10.88617  eV     1   --> A              
     e( 39 - 39) =     11.33962  eV     1   --> A              
     e( 40 - 40) =     11.41236  eV     1   --> A              
     e( 41 - 41) =     11.61963  eV     1   --> A              
     e( 42 - 42) =     11.83853  eV     1   --> A              
     e( 43 - 43) =     13.19938  eV     1   --> A              
     e( 44 - 44) =     13.25961  eV     1   --> A              
     e( 45 - 45) =     13.65383  eV     1   --> A              
     e( 46 - 46) =     13.92051  eV     1   --> A              
     e( 47 - 47) =     13.99696  eV     1   --> A              
     e( 48 - 48) =     14.04607  eV     1   --> A              
     e( 49 - 49) =     14.10455  eV     1   --> A              
     e( 50 - 50) =     14.45868  eV     1   --> A              
     e( 51 - 51) =     14.51445  eV     1   --> A              
     e( 52 - 52) =     14.84770  eV     1   --> A              
     e( 53 - 53) =     14.90171  eV     1   --> A              

 **************************************************************************

 **************************************************************************

                    xk=(   0.17500,   0.10104,   0.00000  )

     Band symmetry, C_1 (1)     point group:

     e(  1 -  1) =    -43.61948  eV     1   --> A              
     e(  2 -  2) =    -43.61223  eV     1   --> A              
     e(  3 -  3) =    -43.59744  eV     1   --> A              
     e(  4 -  4) =    -43.58940  eV     1   --> A              
     e(  5 -  5) =    -43.43432  eV     1   --> A              
     e(  6 -  6) =    -43.42702  eV     1   --> A              
     e(  7 -  7) =    -20.18794  eV     1   --> A              
     e(  8 -  8) =    -20.09190  eV     1   --> A              
     e(  9 -  9) =    -20.06304  eV     1   --> A              
     e( 10 - 10) =    -19.91120  eV     1   --> A              
     e( 11 - 11) =    -19.81989  eV     1   --> A              
     e( 12 - 12) =    -19.79369  eV     1   --> A              
     e( 13 - 13) =    -19.78122  eV     1   --> A              
     e( 14 - 14) =    -19.77294  eV     1   --> A              
     e( 15 - 15) =    -19.72953  eV     1   --> A              
     e( 16 - 16) =    -19.71847  eV     1   --> A              
     e( 17 - 17) =    -19.71307  eV     1   --> A              
     e( 18 - 18) =    -19.70092  eV     1   --> A              
     e( 19 - 19) =    -19.66020  eV     1   --> A              
     e( 20 - 20) =    -19.61540  eV     1   --> A              
     e( 21 - 21) =    -19.61102  eV     1   --> A              
     e( 22 - 22) =    -19.59960  eV     1   --> A              
     e( 23 - 23) =    -19.54799  eV     1   --> A              
     e( 24 - 24) =    -19.54082  eV     1   --> A              
     e( 25 - 25) =      1.74708  eV     1   --> A              
     e( 26 - 26) =      1.80093  eV     1   --> A              
     e( 27 - 27) =      2.88821  eV     1   --> A              
     e( 28 - 28) =      2.97203  eV     1   --> A              
     e( 29 - 29) =      8.11959  eV     1   --> A              
     e( 30 - 30) =      8.43239  eV     1   --> A              
     e( 31 - 31) =      9.19688  eV     1   --> A              
     e( 32 - 32) =      9.68488  eV     1   --> A              
     e( 33 - 33) =     10.08102  eV     1   --> A              
     e( 34 - 34) =     10.43200  eV     1   --> A              
     e( 35 - 35) =     10.46752  eV     1   --> A              
     e( 36 - 36) =     10.48688  eV     1   --> A              
     e( 37 - 37) =     10.63552  eV     1   --> A              
     e( 38 - 38) =     10.90707  eV     1   --> A              
     e( 39 - 39) =     11.31599  eV     1   --> A              
     e( 40 - 40) =     11.38646  eV     1   --> A              
     e( 41 - 41) =     11.64182  eV     1   --> A              
     e( 42 - 42) =     11.86405  eV     1   --> A              
     e( 43 - 43) =     13.03620  eV     1   --> A              
     e( 44 - 44) =     13.09972  eV     1   --> A              
     e( 45 - 45) =     13.65478  eV     1   --> A              
     e( 46 - 46) =     13.95918  eV     1   --> A              
     e( 47 - 47) =     13.99775  eV     1   --> A              
     e( 48 - 48) =     14.01041  eV     1   --> A              
     e( 49 - 49) =     14.21068  eV     1   --> A              
     e( 50 - 50) =     14.41205  eV     1   --> A              
     e( 51 - 51) =     14.55367  eV     1   --> A              
     e( 52 - 52) =     14.89805  eV     1   --> A              
     e( 53 - 53) =     14.94273  eV     1   --> A              

 **************************************************************************

 **************************************************************************

                    xk=(   0.20000,   0.11547,   0.00000  )

     Band symmetry, C_1 (1)     point group:

     e(  1 -  1) =    -43.61579  eV     1   --> A              
     e(  2 -  2) =    -43.60920  eV     1   --> A              
     e(  3 -  3) =    -43.59378  eV     1   --> A              
     e(  4 -  4) =    -43.58642  eV     1   --> A              
     e(  5 -  5) =    -43.43188  eV     1   --> A              
     e(  6 -  6) =    -43.42458  eV     1   --> A              
     e(  7 -  7) =    -20.17823  eV     1   --> A              
     e(  8 -  8) =    -20.09132  eV     1   --> A              
     e(  9 -  9) =    -20.05506  eV     1   --> A              
     e( 10 - 10) =    -19.91529  eV     1   --> A              
     e( 11 - 11) =    -19.84645  eV     1   --> A              
     e( 12 - 12) =    -19.81788  eV     1   --> A              
     e( 13 - 13) =    -19.80387  eV     1   --> A              
     e( 14 - 14) =    -19.79592  eV     1   --> A              
     e( 15 - 15) =    -19.73662  eV     1   --> A              
     e( 16 - 16) =    -19.72411  eV     1   --> A              
     e( 17 - 17) =    -19.72019  eV     1   --> A              
     e( 18 - 18) =    -19.70646  eV     1   --> A              
     e( 19 - 19) =    -19.66033  eV     1   --> A              
     e( 20 - 20) =    -19.63118  eV     1   --> A              
     e( 21 - 21) =    -19.61981  eV     1   --> A              
     e( 22 - 22) =    -19.61460  eV     1   --> A              
     e( 23 - 23) =    -19.55202  eV     1   --> A              
     e( 24 - 24) =    -19.54485  eV     1   --> A              
     e( 25 - 25) =      1.88148  eV     1   --> A              
     e( 26 - 26) =      1.93130  eV     1   --> A              
     e( 27 - 27) =      2.93914  eV     1   --> A              
     e( 28 - 28) =      3.01288  eV     1   --> A              
     e( 29 - 29) =      8.28231  eV     1   --> A              
     e( 30 - 30) =      8.57616  eV     1   --> A              
     e( 31 - 31) =      9.13809  eV     1   --> A              
     e( 32 - 32) =      9.59401  eV     1   --> A              
     e( 33 - 33) =      9.87490  eV     1   --> A              
     e( 34 - 34) =     10.26548  eV     1   --> A              
     e( 35 - 35) =     10.45838  eV     1   --> A              
     e( 36 - 36) =     10.49453  eV     1   --> A              
     e( 37 - 37) =     10.63775  eV     1   --> A              
     e( 38 - 38) =     10.91304  eV     1   --> A              
     e( 39 - 39) =     11.29151  eV     1   --> A              
     e( 40 - 40) =     11.36177  eV     1   --> A              
     e( 41 - 41) =     11.66641  eV     1   --> A              
     e( 42 - 42) =     11.88304  eV     1   --> A              
     e( 43 - 43) =     12.86751  eV     1   --> A              
     e( 44 - 44) =     12.93505  eV     1   --> A              
     e( 45 - 45) =     13.66425  eV     1   --> A              
     e( 46 - 46) =     13.88631  eV     1   --> A              
     e( 47 - 47) =     13.99427  eV     1   --> A              
     e( 48 - 48) =     14.11451  eV     1   --> A              
     e( 49 - 49) =     14.33026  eV     1   --> A              
     e( 50 - 50) =     14.39178  eV     1   --> A              
     e( 51 - 51) =     14.60609  eV     1   --> A              
     e( 52 - 52) =     14.96964  eV     1   --> A              
     e( 53 - 53) =     14.98678  eV     1   --> A              

 **************************************************************************

 **************************************************************************

                    xk=(   0.22500,   0.12990,   0.00000  )

     Band symmetry, C_1 (1)     point group:

     e(  1 -  1) =    -43.61182  eV     1   --> A              
     e(  2 -  2) =    -43.60589  eV     1   --> A              
     e(  3 -  3) =    -43.58988  eV     1   --> A              
     e(  4 -  4) =    -43.58297  eV     1   --> A              
     e(  5 -  5) =    -43.42921  eV     1   --> A              
     e(  6 -  6) =    -43.42190  eV     1   --> A              
     e(  7 -  7) =    -20.16799  eV     1   --> A              
     e(  8 -  8) =    -20.09105  eV     1   --> A              
     e(  9 -  9) =    -20.04732  eV     1   --> A              
     e( 10 - 10) =    -19.92119  eV     1   --> A              
     e( 11 - 11) =    -19.87376  eV     1   --> A              
     e( 12 - 12) =    -19.84328  eV     1   --> A              
     e( 13 - 13) =    -19.82661  eV     1   --> A              
     e( 14 - 14) =    -19.81904  eV     1   --> A              
     e( 15 - 15) =    -19.74405  eV     1   --> A              
     e( 16 - 16) =    -19.73004  eV     1   --> A              
     e( 17 - 17) =    -19.72764  eV     1   --> A              
     e( 18 - 18) =    -19.71227  eV     1   --> A              
     e( 19 - 19) =    -19.66116  eV     1   --> A              
     e( 20 - 20) =    -19.65168  eV     1   --> A              
     e( 21 - 21) =    -19.63578  eV     1   --> A              
     e( 22 - 22) =    -19.61876  eV     1   --> A              
     e( 23 - 23) =    -19.55628  eV     1   --> A              
     e( 24 - 24) =    -19.54912  eV     1   --> A              
     e( 25 - 25) =      2.02620  eV     1   --> A              
     e( 26 - 26) =      2.07165  eV     1   --> A              
     e( 27 - 27) =      2.99081  eV     1   --> A              
     e( 28 - 28) =      3.05468  eV     1   --> A              
     e( 29 - 29) =      8.43844  eV     1   --> A              
     e( 30 - 30) =      8.71187  eV     1   --> A              
     e( 31 - 31) =      9.10472  eV     1   --> A              
     e( 32 - 32) =      9.51645  eV     1   --> A              
     e( 33 - 33) =      9.67462  eV     1   --> A              
     e( 34 - 34) =     10.05786  eV     1   --> A              
     e( 35 - 35) =     10.47715  eV     1   --> A              
     e( 36 - 36) =     10.51448  eV     1   --> A              
     e( 37 - 37) =     10.62996  eV     1   --> A              
     e( 38 - 38) =     10.90519  eV     1   --> A              
     e( 39 - 39) =     11.27180  eV     1   --> A              
     e( 40 - 40) =     11.34310  eV     1   --> A              
     e( 41 - 41) =     11.69123  eV     1   --> A              
     e( 42 - 42) =     11.89774  eV     1   --> A              
     e( 43 - 43) =     12.70227  eV     1   --> A              
     e( 44 - 44) =     12.77199  eV     1   --> A              
     e( 45 - 45) =     13.68198  eV     1   --> A              
     e( 46 - 46) =     13.82628  eV     1   --> A              
     e( 47 - 47) =     13.99703  eV     1   --> A              
     e( 48 - 48) =     14.23312  eV     1   --> A              
     e( 49 - 49) =     14.39470  eV     1   --> A              
     e( 50 - 50) =     14.46263  eV     1   --> A              
     e( 51 - 51) =     14.66739  eV     1   --> A              
     e( 52 - 52) =     15.03796  eV     1   --> A              
     e( 53 - 53) =     15.05984  eV     1   --> A              

 **************************************************************************

 **************************************************************************

                    xk=(   0.25000,   0.14434,   0.00000  )

     Band symmetry, C_1 (1)     point group:

     e(  1 -  1) =    -43.60789  eV     1   --> A              
     e(  2 -  2) =    -43.60259  eV     1   --> A              
     e(  3 -  3) =    -43.58592  eV     1   --> A              
     e(  4 -  4) =    -43.57977  eV     1   --> A              
     e(  5 -  5) =    -43.42662  eV     1   --> A              
     e(  6 -  6) =    -43.41929  eV     1   --> A              
     e(  7 -  7) =    -20.15753  eV     1   --> A              
     e(  8 -  8) =    -20.09115  eV     1   --> A              
     e(  9 -  9) =    -20.04049  eV     1   --> A              
     e( 10 - 10) =    -19.92947  eV     1   --> A              
     e( 11 - 11) =    -19.90117  eV     1   --> A              
     e( 12 - 12) =    -19.86928  eV     1   --> A              
     e( 13 - 13) =    -19.84999  eV     1   --> A              
     e( 14 - 14) =    -19.83959  eV     1   --> A              
     e( 15 - 15) =    -19.75164  eV     1   --> A              
     e( 16 - 16) =    -19.73611  eV     1   --> A              
     e( 17 - 17) =    -19.73524  eV     1   --> A              
     e( 18 - 18) =    -19.71823  eV     1   --> A              
     e( 19 - 19) =    -19.67288  eV     1   --> A              
     e( 20 - 20) =    -19.66184  eV     1   --> A              
     e( 21 - 21) =    -19.65260  eV     1   --> A              
     e( 22 - 22) =    -19.62193  eV     1   --> A              
     e( 23 - 23) =    -19.56068  eV     1   --> A              
     e( 24 - 24) =    -19.55351  eV     1   --> A              
     e( 25 - 25) =      2.17778  eV     1   --> A              
     e( 26 - 26) =      2.21883  eV     1   --> A              
     e( 27 - 27) =      3.04199  eV     1   --> A              
     e( 28 - 28) =      3.09667  eV     1   --> A              
     e( 29 - 29) =      8.55497  eV     1   --> A              
     e( 30 - 30) =      8.81389  eV     1   --> A              
     e( 31 - 31) =      9.11599  eV     1   --> A              
     e( 32 - 32) =      9.45561  eV     1   --> A              
     e( 33 - 33) =      9.49135  eV     1   --> A              
     e( 34 - 34) =      9.87989  eV     1   --> A              
     e( 35 - 35) =     10.48500  eV     1   --> A              
     e( 36 - 36) =     10.52401  eV     1   --> A              
     e( 37 - 37) =     10.61231  eV     1   --> A              
     e( 38 - 38) =     10.88217  eV     1   --> A              
     e( 39 - 39) =     11.25774  eV     1   --> A              
     e( 40 - 40) =     11.33151  eV     1   --> A              
     e( 41 - 41) =     11.71282  eV     1   --> A              
     e( 42 - 42) =     11.91097  eV     1   --> A              
     e( 43 - 43) =     12.54748  eV     1   --> A              
     e( 44 - 44) =     12.61344  eV     1   --> A              
     e( 45 - 45) =     13.70540  eV     1   --> A              
     e( 46 - 46) =     13.77855  eV     1   --> A              
     e( 47 - 47) =     14.01548  eV     1   --> A              
     e( 48 - 48) =     14.36458  eV     1   --> A              
     e( 49 - 49) =     14.41575  eV     1   --> A              
     e( 50 - 50) =     14.60572  eV     1   --> A              
     e( 51 - 51) =     14.73341  eV     1   --> A              
     e( 52 - 52) =     15.09484  eV     1   --> A              
     e( 53 - 53) =     15.11499  eV     1   --> A              

 **************************************************************************

 **************************************************************************

                    xk=(   0.27500,   0.15877,   0.00000  )

     Band symmetry, C_1 (1)     point group:

     e(  1 -  1) =    -43.60395  eV     1   --> A              
     e(  2 -  2) =    -43.59935  eV     1   --> A              
     e(  3 -  3) =    -43.58185  eV     1   --> A              
     e(  4 -  4) =    -43.57644  eV     1   --> A              
     e(  5 -  5) =    -43.42394  eV     1   --> A              
     e(  6 -  6) =    -43.41662  eV     1   --> A              
     e(  7 -  7) =    -20.14724  eV     1   --> A              
     e(  8 -  8) =    -20.09165  eV     1   --> A              
     e(  9 -  9) =    -20.03544  eV     1   --> A              
     e( 10 - 10) =    -19.94037  eV     1   --> A              
     e( 11 - 11) =    -19.92797  eV     1   --> A              
     e( 12 - 12) =    -19.89522  eV     1   --> A              
     e( 13 - 13) =    -19.87427  eV     1   --> A              
     e( 14 - 14) =    -19.85517  eV     1   --> A              
     e( 15 - 15) =    -19.75919  eV     1   --> A              
     e( 16 - 16) =    -19.74281  eV     1   --> A              
     e( 17 - 17) =    -19.74217  eV     1   --> A              
     e( 18 - 18) =    -19.72418  eV     1   --> A              
     e( 19 - 19) =    -19.69288  eV     1   --> A              
     e( 20 - 20) =    -19.66862  eV     1   --> A              
     e( 21 - 21) =    -19.66331  eV     1   --> A              
     e( 22 - 22) =    -19.62541  eV     1   --> A              
     e( 23 - 23) =    -19.56510  eV     1   --> A              
     e( 24 - 24) =    -19.55792  eV     1   --> A              
     e( 25 - 25) =      2.33244  eV     1   --> A              
     e( 26 - 26) =      2.36899  eV     1   --> A              
     e( 27 - 27) =      3.09234  eV     1   --> A              
     e( 28 - 28) =      3.13890  eV     1   --> A              
     e( 29 - 29) =      8.59060  eV     1   --> A              
     e( 30 - 30) =      8.84338  eV     1   --> A              
     e( 31 - 31) =      9.19259  eV     1   --> A              
     e( 32 - 32) =      9.34640  eV     1   --> A              
     e( 33 - 33) =      9.42505  eV     1   --> A              
     e( 34 - 34) =      9.76403  eV     1   --> A              
     e( 35 - 35) =     10.48125  eV     1   --> A              
     e( 36 - 36) =     10.52228  eV     1   --> A              
     e( 37 - 37) =     10.58734  eV     1   --> A              
     e( 38 - 38) =     10.84749  eV     1   --> A              
     e( 39 - 39) =     11.25100  eV     1   --> A              
     e( 40 - 40) =     11.33027  eV     1   --> A              
     e( 41 - 41) =     11.72901  eV     1   --> A              
     e( 42 - 42) =     11.92730  eV     1   --> A              
     e( 43 - 43) =     12.40950  eV     1   --> A              
     e( 44 - 44) =     12.46231  eV     1   --> A              
     e( 45 - 45) =     13.72238  eV     1   --> A              
     e( 46 - 46) =     13.75355  eV     1   --> A              
     e( 47 - 47) =     14.05862  eV     1   --> A              
     e( 48 - 48) =     14.45337  eV     1   --> A              
     e( 49 - 49) =     14.50669  eV     1   --> A              
     e( 50 - 50) =     14.75749  eV     1   --> A              
     e( 51 - 51) =     14.80514  eV     1   --> A              
     e( 52 - 52) =     15.13353  eV     1   --> A              
     e( 53 - 53) =     15.15872  eV     1   --> A              

 **************************************************************************

 **************************************************************************

                    xk=(   0.30000,   0.17320,   0.00000  )

     Band symmetry, C_1 (1)     point group:

     e(  1 -  1) =    -43.60011  eV     1   --> A              
     e(  2 -  2) =    -43.59613  eV     1   --> A              
     e(  3 -  3) =    -43.57791  eV     1   --> A              
     e(  4 -  4) =    -43.57332  eV     1   --> A              
     e(  5 -  5) =    -43.42142  eV     1   --> A              
     e(  6 -  6) =    -43.41410  eV     1   --> A              
     e(  7 -  7) =    -20.13761  eV     1   --> A              
     e(  8 -  8) =    -20.09250  eV     1   --> A              
     e(  9 -  9) =    -20.03324  eV     1   --> A              
     e( 10 - 10) =    -19.95404  eV     1   --> A              
     e( 11 - 11) =    -19.95257  eV     1   --> A              
     e( 12 - 12) =    -19.92047  eV     1   --> A              
     e( 13 - 13) =    -19.89839  eV     1   --> A              
     e( 14 - 14) =    -19.86540  eV     1   --> A              
     e( 15 - 15) =    -19.76652  eV     1   --> A              
     e( 16 - 16) =    -19.75015  eV     1   --> A              
     e( 17 - 17) =    -19.74807  eV     1   --> A              
     e( 18 - 18) =    -19.72998  eV     1   --> A              
     e( 19 - 19) =    -19.71189  eV     1   --> A              
     e( 20 - 20) =    -19.68298  eV     1   --> A              
     e( 21 - 21) =    -19.66518  eV     1   --> A              
     e( 22 - 22) =    -19.62919  eV     1   --> A              
     e( 23 - 23) =    -19.56943  eV     1   --> A              
     e( 24 - 24) =    -19.56224  eV     1   --> A              
     e( 25 - 25) =      2.48540  eV     1   --> A              
     e( 26 - 26) =      2.51747  eV     1   --> A              
     e( 27 - 27) =      3.14221  eV     1   --> A              
     e( 28 - 28) =      3.18197  eV     1   --> A              
     e( 29 - 29) =      8.53878  eV     1   --> A              
     e( 30 - 30) =      8.77764  eV     1   --> A              
     e( 31 - 31) =      9.20880  eV     1   --> A              
     e( 32 - 32) =      9.36751  eV     1   --> A              
     e( 33 - 33) =      9.40634  eV     1   --> A              
     e( 34 - 34) =      9.74820  eV     1   --> A              
     e( 35 - 35) =     10.46601  eV     1   --> A              
     e( 36 - 36) =     10.50943  eV     1   --> A              
     e( 37 - 37) =     10.55542  eV     1   --> A              
     e( 38 - 38) =     10.80145  eV     1   --> A              
     e( 39 - 39) =     11.25187  eV     1   --> A              
     e( 40 - 40) =     11.33629  eV     1   --> A              
     e( 41 - 41) =     11.73729  eV     1   --> A              
     e( 42 - 42) =     11.94884  eV     1   --> A              
     e( 43 - 43) =     12.29450  eV     1   --> A              
     e( 44 - 44) =     12.32069  eV     1   --> A              
     e( 45 - 45) =     13.70492  eV     1   --> A              
     e( 46 - 46) =     13.77750  eV     1   --> A              
     e( 47 - 47) =     14.13104  eV     1   --> A              
     e( 48 - 48) =     14.50840  eV     1   --> A              
     e( 49 - 49) =     14.65535  eV     1   --> A              
     e( 50 - 50) =     14.88555  eV     1   --> A              
     e( 51 - 51) =     14.91472  eV     1   --> A              
     e( 52 - 52) =     15.16138  eV     1   --> A              
     e( 53 - 53) =     15.22589  eV     1   --> A              

 **************************************************************************

 **************************************************************************

                    xk=(   0.32500,   0.18764,   0.00000  )

     Band symmetry, C_1 (1)     point group:

     e(  1 -  1) =    -43.59642  eV     1   --> A              
     e(  2 -  2) =    -43.59302  eV     1   --> A              
     e(  3 -  3) =    -43.57437  eV     1   --> A              
     e(  4 -  4) =    -43.57034  eV     1   --> A              
     e(  5 -  5) =    -43.41901  eV     1   --> A              
     e(  6 -  6) =    -43.41169  eV     1   --> A              
     e(  7 -  7) =    -20.12927  eV     1   --> A              
     e(  8 -  8) =    -20.09353  eV     1   --> A              
     e(  9 -  9) =    -20.03486  eV     1   --> A              
     e( 10 - 10) =    -19.97686  eV     1   --> A              
     e( 11 - 11) =    -19.96608  eV     1   --> A              
     e( 12 - 12) =    -19.94440  eV     1   --> A              
     e( 13 - 13) =    -19.92143  eV     1   --> A              
     e( 14 - 14) =    -19.87070  eV     1   --> A              
     e( 15 - 15) =    -19.77346  eV     1   --> A              
     e( 16 - 16) =    -19.75710  eV     1   --> A              
     e( 17 - 17) =    -19.75368  eV     1   --> A              
     e( 18 - 18) =    -19.73548  eV     1   --> A              
     e( 19 - 19) =    -19.72936  eV     1   --> A              
     e( 20 - 20) =    -19.69577  eV     1   --> A              
     e( 21 - 21) =    -19.66715  eV     1   --> A              
     e( 22 - 22) =    -19.63313  eV     1   --> A              
     e( 23 - 23) =    -19.57355  eV     1   --> A              
     e( 24 - 24) =    -19.56636  eV     1   --> A              
     e( 25 - 25) =      2.63042  eV     1   --> A              
     e( 26 - 26) =      2.65827  eV     1   --> A              
     e( 27 - 27) =      3.19340  eV     1   --> A              
     e( 28 - 28) =      3.22777  eV     1   --> A              
     e( 29 - 29) =      8.42764  eV     1   --> A              
     e( 30 - 30) =      8.64630  eV     1   --> A              
     e( 31 - 31) =      9.15206  eV     1   --> A              
     e( 32 - 32) =      9.37815  eV     1   --> A              
     e( 33 - 33) =      9.53054  eV     1   --> A              
     e( 34 - 34) =      9.82051  eV     1   --> A              
     e( 35 - 35) =     10.44145  eV     1   --> A              
     e( 36 - 36) =     10.49047  eV     1   --> A              
     e( 37 - 37) =     10.51786  eV     1   --> A              
     e( 38 - 38) =     10.74903  eV     1   --> A              
     e( 39 - 39) =     11.25985  eV     1   --> A              
     e( 40 - 40) =     11.34916  eV     1   --> A              
     e( 41 - 41) =     11.73340  eV     1   --> A              
     e( 42 - 42) =     11.97733  eV     1   --> A              
     e( 43 - 43) =     12.18974  eV     1   --> A              
     e( 44 - 44) =     12.21193  eV     1   --> A              
     e( 45 - 45) =     13.68738  eV     1   --> A              
     e( 46 - 46) =     13.81097  eV     1   --> A              
     e( 47 - 47) =     14.23339  eV     1   --> A              
     e( 48 - 48) =     14.58284  eV     1   --> A              
     e( 49 - 49) =     14.80293  eV     1   --> A              
     e( 50 - 50) =     14.98108  eV     1   --> A              
     e( 51 - 51) =     15.07392  eV     1   --> A              
     e( 52 - 52) =     15.19809  eV     1   --> A              
     e( 53 - 53) =     15.29231  eV     1   --> A              

 **************************************************************************

 **************************************************************************

                    xk=(   0.35000,   0.20207,   0.00000  )

     Band symmetry, C_1 (1)     point group:

     e(  1 -  1) =    -43.59300  eV     1   --> A              
     e(  2 -  2) =    -43.59016  eV     1   --> A              
     e(  3 -  3) =    -43.57072  eV     1   --> A              
     e(  4 -  4) =    -43.56751  eV     1   --> A              
     e(  5 -  5) =    -43.41671  eV     1   --> A              
     e(  6 -  6) =    -43.40939  eV     1   --> A              
     e(  7 -  7) =    -20.12301  eV     1   --> A              
     e(  8 -  8) =    -20.09446  eV     1   --> A              
     e(  9 -  9) =    -20.04061  eV     1   --> A              
     e( 10 - 10) =    -19.99712  eV     1   --> A              
     e( 11 - 11) =    -19.97762  eV     1   --> A              
     e( 12 - 12) =    -19.96643  eV     1   --> A              
     e( 13 - 13) =    -19.94270  eV     1   --> A              
     e( 14 - 14) =    -19.87191  eV     1   --> A              
     e( 15 - 15) =    -19.77985  eV     1   --> A              
     e( 16 - 16) =    -19.76348  eV     1   --> A              
     e( 17 - 17) =    -19.75885  eV     1   --> A              
     e( 18 - 18) =    -19.74491  eV     1   --> A              
     e( 19 - 19) =    -19.74055  eV     1   --> A              
     e( 20 - 20) =    -19.70690  eV     1   --> A              
     e( 21 - 21) =    -19.66919  eV     1   --> A              
     e( 22 - 22) =    -19.63709  eV     1   --> A              
     e( 23 - 23) =    -19.57738  eV     1   --> A              
     e( 24 - 24) =    -19.57017  eV     1   --> A              
     e( 25 - 25) =      2.76016  eV     1   --> A              
     e( 26 - 26) =      2.78416  eV     1   --> A              
     e( 27 - 27) =      3.24889  eV     1   --> A              
     e( 28 - 28) =      3.27921  eV     1   --> A              
     e( 29 - 29) =      8.29113  eV     1   --> A              
     e( 30 - 30) =      8.48910  eV     1   --> A              
     e( 31 - 31) =      9.12384  eV     1   --> A              
     e( 32 - 32) =      9.34980  eV     1   --> A              
     e( 33 - 33) =      9.70095  eV     1   --> A              
     e( 34 - 34) =      9.93094  eV     1   --> A              
     e( 35 - 35) =     10.41424  eV     1   --> A              
     e( 36 - 36) =     10.46564  eV     1   --> A              
     e( 37 - 37) =     10.47790  eV     1   --> A              
     e( 38 - 38) =     10.69411  eV     1   --> A              
     e( 39 - 39) =     11.27149  eV     1   --> A              
     e( 40 - 40) =     11.36695  eV     1   --> A              
     e( 41 - 41) =     11.71144  eV     1   --> A              
     e( 42 - 42) =     12.01324  eV     1   --> A              
     e( 43 - 43) =     12.07186  eV     1   --> A              
     e( 44 - 44) =     12.17218  eV     1   --> A              
     e( 45 - 45) =     13.67683  eV     1   --> A              
     e( 46 - 46) =     13.84353  eV     1   --> A              
     e( 47 - 47) =     14.36556  eV     1   --> A              
     e( 48 - 48) =     14.67847  eV     1   --> A              
     e( 49 - 49) =     14.93778  eV     1   --> A              
     e( 50 - 50) =     15.09948  eV     1   --> A              
     e( 51 - 51) =     15.23141  eV     1   --> A              
     e( 52 - 52) =     15.23964  eV     1   --> A              
     e( 53 - 53) =     15.35377  eV     1   --> A              

 **************************************************************************

 **************************************************************************

                    xk=(   0.37500,   0.21651,   0.00000  )

     Band symmetry, C_1 (1)     point group:

     e(  1 -  1) =    -43.58995  eV     1   --> A              
     e(  2 -  2) =    -43.58768  eV     1   --> A              
     e(  3 -  3) =    -43.56771  eV     1   --> A              
     e(  4 -  4) =    -43.56503  eV     1   --> A              
     e(  5 -  5) =    -43.41474  eV     1   --> A              
     e(  6 -  6) =    -43.40741  eV     1   --> A              
     e(  7 -  7) =    -20.11956  eV     1   --> A              
     e(  8 -  8) =    -20.09510  eV     1   --> A              
     e(  9 -  9) =    -20.04949  eV     1   --> A              
     e( 10 - 10) =    -20.01348  eV     1   --> A              
     e( 11 - 11) =    -19.98708  eV     1   --> A              
     e( 12 - 12) =    -19.98595  eV     1   --> A              
     e( 13 - 13) =    -19.96164  eV     1   --> A              
     e( 14 - 14) =    -19.87006  eV     1   --> A              
     e( 15 - 15) =    -19.78552  eV     1   --> A              
     e( 16 - 16) =    -19.76916  eV     1   --> A              
     e( 17 - 17) =    -19.76346  eV     1   --> A              
     e( 18 - 18) =    -19.75829  eV     1   --> A              
     e( 19 - 19) =    -19.74507  eV     1   --> A              
     e( 20 - 20) =    -19.71643  eV     1   --> A              
     e( 21 - 21) =    -19.67118  eV     1   --> A              
     e( 22 - 22) =    -19.64088  eV     1   --> A              
     e( 23 - 23) =    -19.58080  eV     1   --> A              
     e( 24 - 24) =    -19.57358  eV     1   --> A              
     e( 25 - 25) =      2.86688  eV     1   --> A              
     e( 26 - 26) =      2.88751  eV     1   --> A              
     e( 27 - 27) =      3.31162  eV     1   --> A              
     e( 28 - 28) =      3.33895  eV     1   --> A              
     e( 29 - 29) =      8.14894  eV     1   --> A              
     e( 30 - 30) =      8.32867  eV     1   --> A              
     e( 31 - 31) =      9.11545  eV     1   --> A              
     e( 32 - 32) =      9.32719  eV     1   --> A              
     e( 33 - 33) =      9.85737  eV     1   --> A              
     e( 34 - 34) =     10.04613  eV     1   --> A              
     e( 35 - 35) =     10.38460  eV     1   --> A              
     e( 36 - 36) =     10.43724  eV     1   --> A              
     e( 37 - 37) =     10.43870  eV     1   --> A              
     e( 38 - 38) =     10.64015  eV     1   --> A              
     e( 39 - 39) =     11.28301  eV     1   --> A              
     e( 40 - 40) =     11.38455  eV     1   --> A              
     e( 41 - 41) =     11.67067  eV     1   --> A              
     e( 42 - 42) =     11.96757  eV     1   --> A              
     e( 43 - 43) =     12.05676  eV     1   --> A              
     e( 44 - 44) =     12.17479  eV     1   --> A              
     e( 45 - 45) =     13.67047  eV     1   --> A              
     e( 46 - 46) =     13.87182  eV     1   --> A              
     e( 47 - 47) =     14.52354  eV     1   --> A              
     e( 48 - 48) =     14.79588  eV     1   --> A              
     e( 49 - 49) =     15.05291  eV     1   --> A              
     e( 50 - 50) =     15.23911  eV     1   --> A              
     e( 51 - 51) =     15.28215  eV     1   --> A              
     e( 52 - 52) =     15.38071  eV     1   --> A              
     e( 53 - 53) =     15.40676  eV     1   --> A              

 **************************************************************************

 **************************************************************************

                    xk=(   0.40000,   0.23094,   0.00000  )

     Band symmetry, C_1 (1)     point group:

     e(  1 -  1) =    -43.58729  eV     1   --> A              
     e(  2 -  2) =    -43.58556  eV     1   --> A              
     e(  3 -  3) =    -43.56506  eV     1   --> A              
     e(  4 -  4) =    -43.56284  eV     1   --> A              
     e(  5 -  5) =    -43.41300  eV     1   --> A              
     e(  6 -  6) =    -43.40567  eV     1   --> A              
     e(  7 -  7) =    -20.11892  eV     1   --> A              
     e(  8 -  8) =    -20.09577  eV     1   --> A              
     e(  9 -  9) =    -20.05956  eV     1   --> A              
     e( 10 - 10) =    -20.02527  eV     1   --> A              
     e( 11 - 11) =    -20.00266  eV     1   --> A              
     e( 12 - 12) =    -19.99454  eV     1   --> A              
     e( 13 - 13) =    -19.97779  eV     1   --> A              
     e( 14 - 14) =    -19.86628  eV     1   --> A              
     e( 15 - 15) =    -19.79035  eV     1   --> A              
     e( 16 - 16) =    -19.77399  eV     1   --> A              
     e( 17 - 17) =    -19.76933  eV     1   --> A              
     e( 18 - 18) =    -19.76738  eV     1   --> A              
     e( 19 - 19) =    -19.74893  eV     1   --> A              
     e( 20 - 20) =    -19.72444  eV     1   --> A              
     e( 21 - 21) =    -19.67303  eV     1   --> A              
     e( 22 - 22) =    -19.64433  eV     1   --> A              
     e( 23 - 23) =    -19.58373  eV     1   --> A              
     e( 24 - 24) =    -19.57650  eV     1   --> A              
     e( 25 - 25) =      2.94613  eV     1   --> A              
     e( 26 - 26) =      2.96420  eV     1   --> A              
     e( 27 - 27) =      3.38116  eV     1   --> A              
     e( 28 - 28) =      3.40643  eV     1   --> A              
     e( 29 - 29) =      8.01736  eV     1   --> A              
     e( 30 - 30) =      8.18183  eV     1   --> A              
     e( 31 - 31) =      9.11752  eV     1   --> A              
     e( 32 - 32) =      9.31329  eV     1   --> A              
     e( 33 - 33) =      9.99176  eV     1   --> A              
     e( 34 - 34) =     10.14918  eV     1   --> A              
     e( 35 - 35) =     10.35666  eV     1   --> A              
     e( 36 - 36) =     10.39837  eV     1   --> A              
     e( 37 - 37) =     10.41331  eV     1   --> A              
     e( 38 - 38) =     10.59158  eV     1   --> A              
     e( 39 - 39) =     11.29483  eV     1   --> A              
     e( 40 - 40) =     11.40167  eV     1   --> A              
     e( 41 - 41) =     11.62067  eV     1   --> A              
     e( 42 - 42) =     11.87935  eV     1   --> A              
     e( 43 - 43) =     12.10845  eV     1   --> A              
     e( 44 - 44) =     12.20551  eV     1   --> A              
     e( 45 - 45) =     13.66691  eV     1   --> A              
     e( 46 - 46) =     13.89441  eV     1   --> A              
     e( 47 - 47) =     14.70049  eV     1   --> A              
     e( 48 - 48) =     14.93127  eV     1   --> A              
     e( 49 - 49) =     15.15343  eV     1   --> A              
     e( 50 - 50) =     15.32432  eV     1   --> A              
     e( 51 - 51) =     15.38593  eV     1   --> A              
     e( 52 - 52) =     15.44979  eV     1   --> A              
     e( 53 - 53) =     15.51623  eV     1   --> A              

 **************************************************************************

 **************************************************************************

                    xk=(   0.42500,   0.24537,   0.00000  )

     Band symmetry, C_1 (1)     point group:

     e(  1 -  1) =    -43.58523  eV     1   --> A              
     e(  2 -  2) =    -43.58383  eV     1   --> A              
     e(  3 -  3) =    -43.56291  eV     1   --> A              
     e(  4 -  4) =    -43.56110  eV     1   --> A              
     e(  5 -  5) =    -43.41161  eV     1   --> A              
     e(  6 -  6) =    -43.40427  eV     1   --> A              
     e(  7 -  7) =    -20.12019  eV     1   --> A              
     e(  8 -  8) =    -20.09702  eV     1   --> A              
     e(  9 -  9) =    -20.06897  eV     1   --> A              
     e( 10 - 10) =    -20.03258  eV     1   --> A              
     e( 11 - 11) =    -20.01583  eV     1   --> A              
     e( 12 - 12) =    -20.00055  eV     1   --> A              
     e( 13 - 13) =    -19.99071  eV     1   --> A              
     e( 14 - 14) =    -19.86171  eV     1   --> A              
     e( 15 - 15) =    -19.79424  eV     1   --> A              
     e( 16 - 17) =    -19.77795  eV     2   -->   2 A              
     e( 18 - 18) =    -19.77054  eV     1   --> A              
     e( 19 - 19) =    -19.75203  eV     1   --> A              
     e( 20 - 20) =    -19.73096  eV     1   --> A              
     e( 21 - 21) =    -19.67460  eV     1   --> A              
     e( 22 - 22) =    -19.64724  eV     1   --> A              
     e( 23 - 23) =    -19.58609  eV     1   --> A              
     e( 24 - 24) =    -19.57885  eV     1   --> A              
     e( 25 - 25) =      2.99942  eV     1   --> A              
     e( 26 - 26) =      3.01585  eV     1   --> A              
     e( 27 - 27) =      3.45102  eV     1   --> A              
     e( 28 - 28) =      3.47452  eV     1   --> A              
     e( 29 - 29) =      7.90449  eV     1   --> A              
     e( 30 - 30) =      8.05571  eV     1   --> A              
     e( 31 - 31) =      9.12427  eV     1   --> A              
     e( 32 - 32) =      9.30517  eV     1   --> A              
     e( 33 - 33) =     10.09874  eV     1   --> A              
     e( 34 - 34) =     10.23334  eV     1   --> A              
     e( 35 - 35) =     10.33275  eV     1   --> A              
     e( 36 - 36) =     10.36421  eV     1   --> A              
     e( 37 - 37) =     10.39111  eV     1   --> A              
     e( 38 - 38) =     10.55104  eV     1   --> A              
     e( 39 - 39) =     11.30456  eV     1   --> A              
     e( 40 - 40) =     11.41614  eV     1   --> A              
     e( 41 - 41) =     11.57216  eV     1   --> A              
     e( 42 - 42) =     11.80807  eV     1   --> A              
     e( 43 - 43) =     12.16543  eV     1   --> A              
     e( 44 - 44) =     12.24613  eV     1   --> A              
     e( 45 - 45) =     13.66441  eV     1   --> A              
     e( 46 - 46) =     13.91031  eV     1   --> A              
     e( 47 - 47) =     14.88373  eV     1   --> A              
     e( 48 - 48) =     15.07681  eV     1   --> A              
     e( 49 - 49) =     15.24077  eV     1   --> A              
     e( 50 - 50) =     15.36524  eV     1   --> A              
     e( 51 - 51) =     15.48449  eV     1   --> A              
     e( 52 - 52) =     15.52335  eV     1   --> A              
     e( 53 - 53) =     15.63110  eV     1   --> A              

 **************************************************************************

 **************************************************************************

                    xk=(   0.45000,   0.25981,   0.00000  )

     Band symmetry, C_1 (1)     point group:

     e(  1 -  1) =    -43.58376  eV     1   --> A              
     e(  2 -  2) =    -43.58244  eV     1   --> A              
     e(  3 -  3) =    -43.56136  eV     1   --> A              
     e(  4 -  4) =    -43.55977  eV     1   --> A              
     e(  5 -  5) =    -43.41059  eV     1   --> A              
     e(  6 -  6) =    -43.40324  eV     1   --> A              
     e(  7 -  7) =    -20.12218  eV     1   --> A              
     e(  8 -  8) =    -20.09869  eV     1   --> A              
     e(  9 -  9) =    -20.07644  eV     1   --> A              
     e( 10 - 10) =    -20.03663  eV     1   --> A              
     e( 11 - 11) =    -20.02502  eV     1   --> A              
     e( 12 - 12) =    -20.00512  eV     1   --> A              
     e( 13 - 13) =    -20.00004  eV     1   --> A              
     e( 14 - 14) =    -19.85745  eV     1   --> A              
     e( 15 - 15) =    -19.79707  eV     1   --> A              
     e( 16 - 16) =    -19.78411  eV     1   --> A              
     e( 17 - 17) =    -19.78071  eV     1   --> A              
     e( 18 - 18) =    -19.77286  eV     1   --> A              
     e( 19 - 19) =    -19.75430  eV     1   --> A              
     e( 20 - 20) =    -19.73588  eV     1   --> A              
     e( 21 - 21) =    -19.67582  eV     1   --> A              
     e( 22 - 22) =    -19.64945  eV     1   --> A              
     e( 23 - 23) =    -19.58782  eV     1   --> A              
     e( 24 - 24) =    -19.58057  eV     1   --> A              
     e( 25 - 25) =      3.03224  eV     1   --> A              
     e( 26 - 26) =      3.04764  eV     1   --> A              
     e( 27 - 27) =      3.51068  eV     1   --> A              
     e( 28 - 28) =      3.53295  eV     1   --> A              
     e( 29 - 29) =      7.81867  eV     1   --> A              
     e( 30 - 30) =      7.96035  eV     1   --> A              
     e( 31 - 31) =      9.13194  eV     1   --> A              
     e( 32 - 32) =      9.30134  eV     1   --> A              
     e( 33 - 33) =     10.17832  eV     1   --> A              
     e( 34 - 34) =     10.29364  eV     1   --> A              
     e( 35 - 35) =     10.31481  eV     1   --> A              
     e( 36 - 36) =     10.33396  eV     1   --> A              
     e( 37 - 37) =     10.37455  eV     1   --> A              
     e( 38 - 38) =     10.52204  eV     1   --> A              
     e( 39 - 39) =     11.31203  eV     1   --> A              
     e( 40 - 40) =     11.42753  eV     1   --> A              
     e( 41 - 41) =     11.53335  eV     1   --> A              
     e( 42 - 42) =     11.75582  eV     1   --> A              
     e( 43 - 43) =     12.22018  eV     1   --> A              
     e( 44 - 44) =     12.28118  eV     1   --> A              
     e( 45 - 45) =     13.66231  eV     1   --> A              
     e( 46 - 46) =     13.91996  eV     1   --> A              
     e( 47 - 47) =     15.05135  eV     1   --> A              
     e( 48 - 48) =     15.21907  eV     1   --> A              
     e( 49 - 49) =     15.31073  eV     1   --> A              
     e( 50 - 50) =     15.40648  eV     1   --> A              
     e( 51 - 51) =     15.50997  eV     1   --> A              
     e( 52 - 52) =     15.64120  eV     1   --> A              
     e( 53 - 53) =     15.71925  eV     1   --> A              

 **************************************************************************

 **************************************************************************

                    xk=(   0.47500,   0.27424,   0.00000  )

     Band symmetry, C_1 (1)     point group:

     e(  1 -  1) =    -43.58282  eV     1   --> A              
     e(  2 -  2) =    -43.58162  eV     1   --> A              
     e(  3 -  3) =    -43.56030  eV     1   --> A              
     e(  4 -  4) =    -43.55896  eV     1   --> A              
     e(  5 -  5) =    -43.40993  eV     1   --> A              
     e(  6 -  6) =    -43.40257  eV     1   --> A              
     e(  7 -  7) =    -20.12385  eV     1   --> A              
     e(  8 -  8) =    -20.10006  eV     1   --> A              
     e(  9 -  9) =    -20.08119  eV     1   --> A              
     e( 10 - 10) =    -20.03900  eV     1   --> A              
     e( 11 - 11) =    -20.02994  eV     1   --> A              
     e( 12 - 12) =    -20.00829  eV     1   --> A              
     e( 13 - 13) =    -20.00541  eV     1   --> A              
     e( 14 - 14) =    -19.85445  eV     1   --> A              
     e( 15 - 15) =    -19.79880  eV     1   --> A              
     e( 16 - 16) =    -19.78780  eV     1   --> A              
     e( 17 - 17) =    -19.78243  eV     1   --> A              
     e( 18 - 18) =    -19.77427  eV     1   --> A              
     e( 19 - 19) =    -19.75569  eV     1   --> A              
     e( 20 - 20) =    -19.73900  eV     1   --> A              
     e( 21 - 21) =    -19.67658  eV     1   --> A              
     e( 22 - 22) =    -19.65083  eV     1   --> A              
     e( 23 - 23) =    -19.58888  eV     1   --> A              
     e( 24 - 24) =    -19.58163  eV     1   --> A              
     e( 25 - 25) =      3.04976  eV     1   --> A              
     e( 26 - 26) =      3.06466  eV     1   --> A              
     e( 27 - 27) =      3.55063  eV     1   --> A              
     e( 28 - 28) =      3.57217  eV     1   --> A              
     e( 29 - 29) =      7.76548  eV     1   --> A              
     e( 30 - 30) =      7.90082  eV     1   --> A              
     e( 31 - 31) =      9.13783  eV     1   --> A              
     e( 32 - 32) =      9.29977  eV     1   --> A              
     e( 33 - 33) =     10.23273  eV     1   --> A              
     e( 34 - 34) =     10.30402  eV     1   --> A              
     e( 35 - 35) =     10.30820  eV     1   --> A              
     e( 36 - 36) =     10.32875  eV     1   --> A              
     e( 37 - 37) =     10.36405  eV     1   --> A              
     e( 38 - 38) =     10.50586  eV     1   --> A              
     e( 39 - 39) =     11.31657  eV     1   --> A              
     e( 40 - 40) =     11.43540  eV     1   --> A              
     e( 41 - 41) =     11.50859  eV     1   --> A              
     e( 42 - 42) =     11.72398  eV     1   --> A              
     e( 43 - 43) =     12.26465  eV     1   --> A              
     e( 44 - 44) =     12.29985  eV     1   --> A              
     e( 45 - 45) =     13.66092  eV     1   --> A              
     e( 46 - 46) =     13.92495  eV     1   --> A              
     e( 47 - 47) =     15.16843  eV     1   --> A              
     e( 48 - 48) =     15.33387  eV     1   --> A              
     e( 49 - 49) =     15.35810  eV     1   --> A              
     e( 50 - 50) =     15.44726  eV     1   --> A              
     e( 51 - 51) =     15.52627  eV     1   --> A              
     e( 52 - 52) =     15.72854  eV     1   --> A              
     e( 53 - 53) =     15.77525  eV     1   --> A              

 **************************************************************************

 **************************************************************************

                    xk=(   0.50000,   0.28867,   0.00000  )

     Band symmetry, C_1 (1)     point group:

     e(  1 -  1) =    -43.58261  eV     1   --> A              
     e(  2 -  2) =    -43.58132  eV     1   --> A              
     e(  3 -  3) =    -43.56004  eV     1   --> A              
     e(  4 -  4) =    -43.55879  eV     1   --> A              
     e(  5 -  5) =    -43.40978  eV     1   --> A              
     e(  6 -  6) =    -43.40242  eV     1   --> A              
     e(  7 -  7) =    -20.12450  eV     1   --> A              
     e(  8 -  8) =    -20.10058  eV     1   --> A              
     e(  9 -  9) =    -20.08281  eV     1   --> A              
     e( 10 - 10) =    -20.03994  eV     1   --> A              
     e( 11 - 11) =    -20.03132  eV     1   --> A              
     e( 12 - 12) =    -20.00957  eV     1   --> A              
     e( 13 - 13) =    -20.00700  eV     1   --> A              
     e( 14 - 14) =    -19.85336  eV     1   --> A              
     e( 15 - 15) =    -19.79938  eV     1   --> A              
     e( 16 - 16) =    -19.78903  eV     1   --> A              
     e( 17 - 17) =    -19.78301  eV     1   --> A              
     e( 18 - 18) =    -19.77474  eV     1   --> A              
     e( 19 - 19) =    -19.75615  eV     1   --> A              
     e( 20 - 20) =    -19.74008  eV     1   --> A              
     e( 21 - 21) =    -19.67684  eV     1   --> A              
     e( 22 - 22) =    -19.65130  eV     1   --> A              
     e( 23 - 23) =    -19.58924  eV     1   --> A              
     e( 24 - 24) =    -19.58198  eV     1   --> A              
     e( 25 - 25) =      3.05518  eV     1   --> A              
     e( 26 - 26) =      3.06994  eV     1   --> A              
     e( 27 - 27) =      3.56461  eV     1   --> A              
     e( 28 - 28) =      3.58593  eV     1   --> A              
     e( 29 - 29) =      7.74581  eV     1   --> A              
     e( 30 - 30) =      7.88042  eV     1   --> A              
     e( 31 - 31) =      9.13817  eV     1   --> A              
     e( 32 - 32) =      9.30014  eV     1   --> A              
     e( 33 - 33) =     10.25810  eV     1   --> A              
     e( 34 - 34) =     10.29209  eV     1   --> A              
     e( 35 - 35) =     10.29955  eV     1   --> A              
     e( 36 - 36) =     10.33946  eV     1   --> A              
     e( 37 - 37) =     10.36029  eV     1   --> A              
     e( 38 - 38) =     10.50014  eV     1   --> A              
     e( 39 - 39) =     11.31751  eV     1   --> A              
     e( 40 - 40) =     11.43807  eV     1   --> A              
     e( 41 - 41) =     11.49991  eV     1   --> A              
     e( 42 - 42) =     11.71299  eV     1   --> A              
     e( 43 - 43) =     12.28676  eV     1   --> A              
     e( 44 - 44) =     12.30002  eV     1   --> A              
     e( 45 - 45) =     13.66044  eV     1   --> A              
     e( 46 - 46) =     13.92636  eV     1   --> A              
     e( 47 - 47) =     15.20774  eV     1   --> A              
     e( 48 - 48) =     15.37417  eV     1   --> A              
     e( 49 - 49) =     15.38046  eV     1   --> A              
     e( 50 - 50) =     15.46809  eV     1   --> A              
     e( 51 - 51) =     15.53098  eV     1   --> A              
     e( 52 - 52) =     15.76690  eV     1   --> A              
     e( 53 - 53) =     15.79452  eV     1   --> A              

 **************************************************************************

 **************************************************************************

                    xk=(   0.49444,   0.29830,   0.00000  )

     Band symmetry, C_1 (1)     point group:

     e(  1 -  1) =    -43.58259  eV     1   --> A              
     e(  2 -  2) =    -43.58135  eV     1   --> A              
     e(  3 -  3) =    -43.56002  eV     1   --> A              
     e(  4 -  4) =    -43.55877  eV     1   --> A              
     e(  5 -  5) =    -43.40978  eV     1   --> A              
     e(  6 -  6) =    -43.40243  eV     1   --> A              
     e(  7 -  7) =    -20.12440  eV     1   --> A              
     e(  8 -  8) =    -20.10043  eV     1   --> A              
     e(  9 -  9) =    -20.08267  eV     1   --> A              
[...]
     e( 25 - 25) =      2.43181  eV     1   --> A              
     e( 26 - 26) =      2.46608  eV     1   --> A              
     e( 27 - 27) =      3.11584  eV     1   --> A              
     e( 28 - 28) =      3.15630  eV     1   --> A              
     e( 29 - 29) =      8.90268  eV     1   --> A              
     e( 30 - 30) =      8.99877  eV     1   --> A              
     e( 31 - 31) =      9.05041  eV     1   --> A              
     e( 32 - 32) =      9.37225  eV     1   --> A              
     e( 33 - 33) =      9.40379  eV     1   --> A              
     e( 34 - 34) =      9.80645  eV     1   --> A              
     e( 35 - 35) =     10.37418  eV     1   --> A              
     e( 36 - 36) =     10.51013  eV     1   --> A              
     e( 37 - 37) =     10.53028  eV     1   --> A              
     e( 38 - 38) =     10.64732  eV     1   --> A              
     e( 39 - 39) =     10.73974  eV     1   --> A              
     e( 40 - 40) =     10.92299  eV     1   --> A              
     e( 41 - 41) =     12.07159  eV     1   --> A              
     e( 42 - 42) =     12.23051  eV     1   --> A              
     e( 43 - 43) =     12.83203  eV     1   --> A              
     e( 44 - 44) =     13.03937  eV     1   --> A              
     e( 45 - 45) =     13.10600  eV     1   --> A              
     e( 46 - 46) =     13.44948  eV     1   --> A              
     e( 47 - 47) =     13.81299  eV     1   --> A              
     e( 48 - 48) =     14.13767  eV     1   --> A              
     e( 49 - 49) =     14.42653  eV     1   --> A              
     e( 50 - 50) =     14.68735  eV     1   --> A              
     e( 51 - 51) =     14.69817  eV     1   --> A              
     e( 52 - 52) =     15.14535  eV     1   --> A              
     e( 53 - 53) =     15.23192  eV     1   --> A              

 **************************************************************************

 **************************************************************************

                    xk=(   0.13332,   0.23092,   0.00000  )

     Band symmetry, C_1 (1)     point group:

     e(  1 -  1) =    -43.61096  eV     1   --> A              
     e(  2 -  2) =    -43.60514  eV     1   --> A              
     e(  3 -  3) =    -43.58890  eV     1   --> A              
     e(  4 -  4) =    -43.58222  eV     1   --> A              
     e(  5 -  5) =    -43.42861  eV     1   --> A              
     e(  6 -  6) =    -43.42130  eV     1   --> A              
     e(  7 -  7) =    -20.16497  eV     1   --> A              
     e(  8 -  8) =    -20.09075  eV     1   --> A              
     e(  9 -  9) =    -20.04463  eV     1   --> A              
     e( 10 - 10) =    -19.92020  eV     1   --> A              
     e( 11 - 11) =    -19.87286  eV     1   --> A              
     e( 12 - 12) =    -19.84125  eV     1   --> A              
     e( 13 - 13) =    -19.82586  eV     1   --> A              
     e( 14 - 14) =    -19.81997  eV     1   --> A              
     e( 15 - 15) =    -19.75284  eV     1   --> A              
     e( 16 - 16) =    -19.75009  eV     1   --> A              
     e( 17 - 17) =    -19.73292  eV     1   --> A              
     e( 18 - 18) =    -19.72998  eV     1   --> A              
     e( 19 - 19) =    -19.65677  eV     1   --> A              
     e( 20 - 20) =    -19.64430  eV     1   --> A              
     e( 21 - 21) =    -19.62775  eV     1   --> A              
     e( 22 - 22) =    -19.61921  eV     1   --> A              
     e( 23 - 23) =    -19.56639  eV     1   --> A              
     e( 24 - 24) =    -19.55895  eV     1   --> A              
     e( 25 - 25) =      2.06499  eV     1   --> A              
     e( 26 - 26) =      2.10946  eV     1   --> A              
     e( 27 - 27) =      3.00317  eV     1   --> A              
     e( 28 - 28) =      3.06408  eV     1   --> A              
     e( 29 - 29) =      8.53037  eV     1   --> A              
     e( 30 - 30) =      8.77343  eV     1   --> A              
     e( 31 - 31) =      9.08933  eV     1   --> A              
     e( 32 - 32) =      9.52403  eV     1   --> A              
     e( 33 - 33) =      9.66560  eV     1   --> A              
     e( 34 - 34) =     10.04517  eV     1   --> A              
     e( 35 - 35) =     10.49720  eV     1   --> A              
     e( 36 - 36) =     10.55537  eV     1   --> A              
     e( 37 - 37) =     10.62590  eV     1   --> A              
     e( 38 - 38) =     10.83862  eV     1   --> A              
     e( 39 - 39) =     10.89464  eV     1   --> A              
     e( 40 - 40) =     11.09257  eV     1   --> A              
     e( 41 - 41) =     11.81510  eV     1   --> A              
     e( 42 - 42) =     12.22179  eV     1   --> A              
     e( 43 - 43) =     12.83191  eV     1   --> A              
     e( 44 - 44) =     13.09650  eV     1   --> A              
     e( 45 - 45) =     13.36984  eV     1   --> A              
     e( 46 - 46) =     13.57969  eV     1   --> A              
     e( 47 - 47) =     13.79457  eV     1   --> A              
     e( 48 - 48) =     14.29185  eV     1   --> A              
     e( 49 - 49) =     14.35561  eV     1   --> A              
     e( 50 - 50) =     14.45543  eV     1   --> A              
     e( 51 - 51) =     14.81340  eV     1   --> A              
     e( 52 - 52) =     14.82067  eV     1   --> A              
     e( 53 - 53) =     14.91911  eV     1   --> A              

 **************************************************************************

 **************************************************************************

                    xk=(   0.09999,   0.17319,   0.00000  )

     Band symmetry, C_1 (1)     point group:

     e(  1 -  1) =    -43.61962  eV     1   --> A              
     e(  2 -  2) =    -43.61243  eV     1   --> A              
     e(  3 -  3) =    -43.59772  eV     1   --> A              
     e(  4 -  4) =    -43.58955  eV     1   --> A              
     e(  5 -  5) =    -43.43442  eV     1   --> A              
     e(  6 -  6) =    -43.42713  eV     1   --> A              
     e(  7 -  7) =    -20.18853  eV     1   --> A              
     e(  8 -  8) =    -20.09189  eV     1   --> A              
     e(  9 -  9) =    -20.06347  eV     1   --> A              
     e( 10 - 10) =    -19.91060  eV     1   --> A              
     e( 11 - 11) =    -19.81530  eV     1   --> A              
     e( 12 - 12) =    -19.78882  eV     1   --> A              
     e( 13 - 13) =    -19.77667  eV     1   --> A              
     e( 14 - 14) =    -19.76966  eV     1   --> A              
     e( 15 - 15) =    -19.72866  eV     1   --> A              
     e( 16 - 16) =    -19.72774  eV     1   --> A              
     e( 17 - 17) =    -19.71017  eV     1   --> A              
     e( 18 - 18) =    -19.70999  eV     1   --> A              
     e( 19 - 19) =    -19.65822  eV     1   --> A              
     e( 20 - 20) =    -19.61441  eV     1   --> A              
     e( 21 - 21) =    -19.60517  eV     1   --> A              
     e( 22 - 22) =    -19.59411  eV     1   --> A              
     e( 23 - 23) =    -19.55123  eV     1   --> A              
     e( 24 - 24) =    -19.54400  eV     1   --> A              
     e( 25 - 25) =      1.73837  eV     1   --> A              
     e( 26 - 26) =      1.79251  eV     1   --> A              
     e( 27 - 27) =      2.88475  eV     1   --> A              
     e( 28 - 28) =      2.96919  eV     1   --> A              
     e( 29 - 29) =      8.11495  eV     1   --> A              
     e( 30 - 30) =      8.42625  eV     1   --> A              
     e( 31 - 31) =      9.20774  eV     1   --> A              
     e( 32 - 32) =      9.70465  eV     1   --> A              
     e( 33 - 33) =     10.06884  eV     1   --> A              
     e( 34 - 34) =     10.37621  eV     1   --> A              
     e( 35 - 35) =     10.54352  eV     1   --> A              
     e( 36 - 36) =     10.60480  eV     1   --> A              
     e( 37 - 37) =     10.63453  eV     1   --> A              
     e( 38 - 38) =     10.91032  eV     1   --> A              
     e( 39 - 39) =     11.09088  eV     1   --> A              
     e( 40 - 40) =     11.28614  eV     1   --> A              
     e( 41 - 41) =     11.68122  eV     1   --> A              
     e( 42 - 42) =     12.02170  eV     1   --> A              
     e( 43 - 43) =     13.12569  eV     1   --> A              
     e( 44 - 44) =     13.28703  eV     1   --> A              
     e( 45 - 45) =     13.51101  eV     1   --> A              
     e( 46 - 46) =     13.70527  eV     1   --> A              
     e( 47 - 47) =     13.83998  eV     1   --> A              
     e( 48 - 48) =     14.23772  eV     1   --> A              
     e( 49 - 49) =     14.27349  eV     1   --> A              
     e( 50 - 50) =     14.51331  eV     1   --> A              
     e( 51 - 51) =     14.58327  eV     1   --> A              
     e( 52 - 52) =     14.64753  eV     1   --> A              
     e( 53 - 53) =     14.73270  eV     1   --> A              

 **************************************************************************

 **************************************************************************

                    xk=(   0.06666,   0.11546,   0.00000  )

     Band symmetry, C_1 (1)     point group:

     e(  1 -  1) =    -43.62682  eV     1   --> A              
     e(  2 -  2) =    -43.61844  eV     1   --> A              
     e(  3 -  3) =    -43.60488  eV     1   --> A              
     e(  4 -  4) =    -43.59561  eV     1   --> A              
     e(  5 -  5) =    -43.43928  eV     1   --> A              
     e(  6 -  6) =    -43.43200  eV     1   --> A              
     e(  7 -  7) =    -20.20747  eV     1   --> A              
     e(  8 -  8) =    -20.09388  eV     1   --> A              
     e(  9 -  9) =    -20.08026  eV     1   --> A              
     e( 10 - 10) =    -19.90608  eV     1   --> A              
     e( 11 - 11) =    -19.76234  eV     1   --> A              
     e( 12 - 12) =    -19.74384  eV     1   --> A              
     e( 13 - 13) =    -19.72980  eV     1   --> A              
     e( 14 - 14) =    -19.72612  eV     1   --> A              
     e( 15 - 15) =    -19.71378  eV     1   --> A              
     e( 16 - 16) =    -19.71022  eV     1   --> A              
     e( 17 - 17) =    -19.69628  eV     1   --> A              
     e( 18 - 18) =    -19.69296  eV     1   --> A              
     e( 19 - 19) =    -19.66235  eV     1   --> A              
     e( 20 - 20) =    -19.61328  eV     1   --> A              
     e( 21 - 21) =    -19.56850  eV     1   --> A              
     e( 22 - 22) =    -19.56038  eV     1   --> A              
     e( 23 - 23) =    -19.54072  eV     1   --> A              
     e( 24 - 24) =    -19.53352  eV     1   --> A              
     e( 25 - 25) =      1.48288  eV     1   --> A              
     e( 26 - 26) =      1.54480  eV     1   --> A              
     e( 27 - 27) =      2.77856  eV     1   --> A              
     e( 28 - 28) =      2.88477  eV     1   --> A              
     e( 29 - 29) =      7.77964  eV     1   --> A              
     e( 30 - 30) =      8.12757  eV     1   --> A              
     e( 31 - 31) =      9.39451  eV     1   --> A              
     e( 32 - 32) =      9.93104  eV     1   --> A              
     e( 33 - 33) =     10.31064  eV     1   --> A              
     e( 34 - 34) =     10.38390  eV     1   --> A              
     e( 35 - 35) =     10.51443  eV     1   --> A              
     e( 36 - 36) =     10.68605  eV     1   --> A              
     e( 37 - 37) =     10.83650  eV     1   --> A              
     e( 38 - 38) =     11.01521  eV     1   --> A              
     e( 39 - 39) =     11.29471  eV     1   --> A              
     e( 40 - 40) =     11.42206  eV     1   --> A              
     e( 41 - 41) =     11.62482  eV     1   --> A              
     e( 42 - 42) =     11.82366  eV     1   --> A              
     e( 43 - 43) =     13.44340  eV     1   --> A              
     e( 44 - 44) =     13.52874  eV     1   --> A              
     e( 45 - 45) =     13.58519  eV     1   --> A              
     e( 46 - 46) =     13.80588  eV     1   --> A              
     e( 47 - 47) =     13.81478  eV     1   --> A              
     e( 48 - 48) =     14.09298  eV     1   --> A              
     e( 49 - 49) =     14.26462  eV     1   --> A              
     e( 50 - 50) =     14.51588  eV     1   --> A              
     e( 51 - 51) =     14.63192  eV     1   --> A              
     e( 52 - 52) =     14.64300  eV     1   --> A              
     e( 53 - 53) =     14.73825  eV     1   --> A              

 **************************************************************************

 **************************************************************************

                    xk=(   0.03333,   0.05773,   0.00000  )

     Band symmetry, C_1 (1)     point group:

     e(  1 -  1) =    -43.63141  eV     1   --> A              
     e(  2 -  2) =    -43.62246  eV     1   --> A              
     e(  3 -  3) =    -43.60971  eV     1   --> A              
     e(  4 -  4) =    -43.59958  eV     1   --> A              
     e(  5 -  5) =    -43.44247  eV     1   --> A              
     e(  6 -  6) =    -43.43516  eV     1   --> A              
     e(  7 -  7) =    -20.21973  eV     1   --> A              
     e(  8 -  8) =    -20.09564  eV     1   --> A              
     e(  9 -  9) =    -20.09158  eV     1   --> A              
     e( 10 - 10) =    -19.90443  eV     1   --> A              
     e( 11 - 11) =    -19.72031  eV     1   --> A              
     e( 12 - 12) =    -19.71345  eV     1   --> A              
     e( 13 - 13) =    -19.70517  eV     1   --> A              
     e( 14 - 14) =    -19.70022  eV     1   --> A              
     e( 15 - 15) =    -19.69659  eV     1   --> A              
     e( 16 - 16) =    -19.69470  eV     1   --> A              
     e( 17 - 17) =    -19.68796  eV     1   --> A              
     e( 18 - 18) =    -19.68303  eV     1   --> A              
     e( 19 - 19) =    -19.67088  eV     1   --> A              
     e( 20 - 20) =    -19.61540  eV     1   --> A              
     e( 21 - 21) =    -19.54243  eV     1   --> A              
     e( 22 - 22) =    -19.53514  eV     1   --> A              
     e( 23 - 23) =    -19.53485  eV     1   --> A              
     e( 24 - 24) =    -19.52764  eV     1   --> A              
     e( 25 - 25) =      1.32056  eV     1   --> A              
     e( 26 - 26) =      1.38747  eV     1   --> A              
     e( 27 - 27) =      2.70452  eV     1   --> A              
     e( 28 - 28) =      2.82606  eV     1   --> A              
     e( 29 - 29) =      7.56482  eV     1   --> A              
     e( 30 - 30) =      7.93036  eV     1   --> A              
     e( 31 - 31) =      9.60748  eV     1   --> A              
     e( 32 - 32) =     10.16791  eV     1   --> A              
     e( 33 - 33) =     10.29562  eV     1   --> A              
     e( 34 - 34) =     10.33371  eV     1   --> A              
     e( 35 - 35) =     10.37088  eV     1   --> A              
     e( 36 - 36) =     10.70385  eV     1   --> A              
     e( 37 - 37) =     11.03161  eV     1   --> A              
     e( 38 - 38) =     11.36259  eV     1   --> A              
     e( 39 - 39) =     11.39960  eV     1   --> A              
     e( 40 - 40) =     11.48327  eV     1   --> A              
     e( 41 - 41) =     11.54337  eV     1   --> A              
     e( 42 - 42) =     11.71441  eV     1   --> A              
     e( 43 - 43) =     13.61952  eV     1   --> A              
     e( 44 - 44) =     13.65602  eV     1   --> A              
     e( 45 - 45) =     13.71941  eV     1   --> A              
     e( 46 - 46) =     13.72328  eV     1   --> A              
     e( 47 - 47) =     13.83077  eV     1   --> A              
     e( 48 - 48) =     13.96601  eV     1   --> A              
     e( 49 - 49) =     14.47079  eV     1   --> A              
     e( 50 - 50) =     14.55316  eV     1   --> A              
     e( 51 - 51) =     14.70037  eV     1   --> A              
     e( 52 - 52) =     14.79510  eV     1   --> A              
     e( 53 - 53) =     14.83602  eV     1   --> A              

 **************************************************************************

 **************************************************************************

                    xk=(   0.00000,   0.00000,   0.00000  )

     Band symmetry, C_1 (1)     point group:

     e(  1 -  1) =    -43.63296  eV     1   --> A              
     e(  2 -  2) =    -43.62372  eV     1   --> A              
     e(  3 -  3) =    -43.61139  eV     1   --> A              
     e(  4 -  4) =    -43.60122  eV     1   --> A              
     e(  5 -  5) =    -43.44356  eV     1   --> A              
     e(  6 -  6) =    -43.43627  eV     1   --> A              
     e(  7 -  7) =    -20.22397  eV     1   --> A              
     e(  8 -  8) =    -20.09634  eV     1   --> A              
     e(  9 -  9) =    -20.09555  eV     1   --> A              
     e( 10 - 10) =    -19.90406  eV     1   --> A              
     e( 11 - 12) =    -19.70250  eV     2   -->   2 A              
     e( 13 - 14) =    -19.69721  eV     2   -->   2 A              
     e( 15 - 16) =    -19.68589  eV     2   -->   2 A              
     e( 17 - 17) =    -19.68196  eV     1   --> A              
     e( 18 - 19) =    -19.68006  eV     2   -->   2 A              
     e( 20 - 20) =    -19.61749  eV     1   --> A              
     e( 21 - 22) =    -19.53303  eV     2   -->   2 A              
     e( 23 - 24) =    -19.52581  eV     2   -->   2 A              
     e( 25 - 25) =      1.26494  eV     1   --> A              
     e( 26 - 26) =      1.33355  eV     1   --> A              
     e( 27 - 27) =      2.67794  eV     1   --> A              
     e( 28 - 28) =      2.80495  eV     1   --> A              
     e( 29 - 29) =      7.49222  eV     1   --> A              
     e( 30 - 30) =      7.86218  eV     1   --> A              
     e( 31 - 31) =      9.72707  eV     1   --> A              
     e( 32 - 33) =     10.27476  eV     2   -->   2 A              
     e( 34 - 35) =     10.31252  eV     2   -->   2 A              
     e( 36 - 36) =     10.59598  eV     1   --> A              
     e( 37 - 37) =     11.27209  eV     1   --> A              
     e( 38 - 39) =     11.41544  eV     2   -->   2 A              
     e( 40 - 41) =     11.50045  eV     2   -->   2 A              
     e( 42 - 42) =     11.69371  eV     1   --> A              
     e( 43 - 44) =     13.66862  eV     2   -->   2 A              
     e( 45 - 45) =     13.69585  eV     1   --> A              
     e( 46 - 47) =     13.79774  eV     2   -->   2 A              
     e( 48 - 48) =     13.95306  eV     1   --> A              
     e( 49 - 50) =     14.59104  eV     2   -->   2 A              
     e( 51 - 52) =     14.73316  eV     2   -->   2 A              
     e( 53 - 53) =     14.94284  eV     1   --> A              

 **************************************************************************

     BANDS        :     28.02s CPU     10.96s WALL


   This run was terminated on:  17:28:47   22May2024            

=------------------------------------------------------------------------------=
   JOB DONE.
=------------------------------------------------------------------------------=
