
     Program PWSCF v.6.4.1 starts on  22May2024 at 17:25:43 

     This program is part of the open-source Quantum ESPRESSO suite
     for quantum simulation of materials; please cite
         "P. Giannozzi et al., J. Phys.:Condens. Matter 21 395502 (2009);
         "P. Giannozzi et al., J. Phys.:Condens. Matter 29 465901 (2017);
          URL http://www.quantum-espresso.org", 
     in publications or presentations arising from this work. More details at
     http://www.quantum-espresso.org/quote

     Parallel version (MPI & OpenMP), running on       8 processor cores
     Number of MPI processes:                 1
     Threads/MPI process:                     8

     MPI processes distributed on     1 nodes
     Reading input from ti3c2.bands.in

     Current dimensions of program PWSCF are:
     Max number of different atomic species (ntypx) = 10
     Max number of k-points (npk) =  40000
     Max angular momentum in pseudopotentials (lmaxx) =  3

     Atomic positions and unit cell read from directory:
     ./out/\aiida.save\

               file C.pbe-n-kjpaw_psl.1.0.0.UPF: wavefunction(s)  2S 2P renormalized

     Subspace diagonalization in iterative solution of the eigenvalue problem:
     a serial algorithm will be used


     G-vector sticks info
     --------------------
     sticks:   dense  smooth     PW     G-vecs:    dense   smooth      PW
     Sum         283     283     85                18741    18741    3357



     bravais-lattice index     =            0
     lattice parameter (alat)  =       5.8429  a.u.
     unit-cell volume          =     844.6038 (a.u.)^3
     number of atoms/cell      =           10
     number of atomic types    =            2
     number of electrons       =        88.00
     number of Kohn-Sham states=           53
     kinetic-energy cutoff     =      30.0000  Ry
     charge density cutoff     =     120.0000  Ry
     Exchange-correlation      = SLA PW PBX PBC ( 1  4  3  4 0 0)

     celldm(1)=   5.842877  celldm(2)=   0.000000  celldm(3)=   0.000000
     celldm(4)=   0.000000  celldm(5)=   0.000000  celldm(6)=   0.000000

     crystal axes: (cart. coord. in units of alat)
               a(1) = (   1.000000  -0.000000   0.000000 )  
               a(2) = (  -0.500000   0.866026   0.000000 )  
               a(3) = (   0.000000   0.000000   4.889248 )  

     reciprocal axes: (cart. coord. in units 2 pi/alat)
               b(1) = (  1.000000  0.577350 -0.000000 )  
               b(2) = (  0.000000  1.154700 -0.000000 )  
               b(3) = ( -0.000000 -0.000000  0.204530 )  


     PseudoPot. # 1 for Ti read from file:
     D:/sssp/\ti_pbe_v1.4.uspp.F.UPF
     MD5 check sum: 0a89ab6099b5d376ea4ad1ec5d91ad9a
     Pseudo is Ultrasoft + core correction, Zval = 12.0
     Generated by new atomic code, or converted to UPF format
     Using radial grid of  851 points,  6 beta functions with: 
                l(1) =   0
                l(2) =   0
                l(3) =   1
                l(4) =   1
                l(5) =   2
                l(6) =   2
     Q(r) pseudized with  6 coefficients,  rinner =    1.000   1.000   1.000
                                                       1.000   1.000

     PseudoPot. # 2 for C  read from file:
     D:/sssp/\C.pbe-n-kjpaw_psl.1.0.0.UPF
     MD5 check sum: d6cda0f428f4bfa5e6956a1475abca27
     Pseudo is Projector augmented-wave + core cor, Zval =  4.0
     Generated using "atomic" code by A. Dal Corso v.5.1
     Shape of augmentation charge: PSQ
     Using radial grid of 1073 points,  4 beta functions with: 
                l(1) =   0
                l(2) =   0
                l(3) =   1
                l(4) =   1
     Q(r) pseudized with 0 coefficients 


     atomic species   valence    mass     pseudopotential
        Ti            12.00    47.90000     Ti( 1.00)
        C              4.00    12.01100     C ( 1.00)

     No symmetry found


                                    s                        frac. trans.

      isym =  1     identity                                     

 cryst.   s( 1) = (     1          0          0      )
                  (     0          1          0      )
                  (     0          0          1      )

 cart.    s( 1) = (  1.0000000  0.0000000  0.0000000 )
                  (  0.0000000  1.0000000  0.0000000 )
                  (  0.0000000  0.0000000  1.0000000 )


   Cartesian axes

     site n.     atom                  positions (alat units)
         1           Ti  tau(   1) = (   0.5000006   0.2886749   1.6885373  )
         2           Ti  tau(   2) = (  -0.0000004   0.5773506   4.1331820  )
         3           Ti  tau(   3) = (  -0.0000004   0.5773506   3.2007103  )
         4           Ti  tau(   4) = (   0.5000006   0.2886749   0.7560655  )
         5           Ti  tau(   5) = (   0.0000000   0.0000000   2.4446238  )
         6           Ti  tau(   6) = (   0.0000000   0.0000000   0.0000000  )
         7           C   tau(   7) = (  -0.0000004   0.5773506   2.0269006  )
         8           C   tau(   8) = (   0.5000006   0.2886749   4.4715221  )
         9           C   tau(   9) = (  -0.0000004   0.5773506   0.4177254  )
        10           C   tau(  10) = (   0.5000006   0.2886749   2.8623470  )

   Crystallographic axes

     site n.     atom                  positions (cryst. coord.)
         1           Ti  tau(   1) = (  0.6666670  0.3333330  0.3453573  )
         2           Ti  tau(   2) = (  0.3333330  0.6666670  0.8453616  )
         3           Ti  tau(   3) = (  0.3333330  0.6666670  0.6546427  )
         4           Ti  tau(   4) = (  0.6666670  0.3333330  0.1546384  )
         5           Ti  tau(   5) = (  0.0000000  0.0000000  0.5000000  )
         6           Ti  tau(   6) = (  0.0000000  0.0000000  0.0000000  )
         7           C   tau(   7) = (  0.3333330  0.6666670  0.4145629  )
         8           C   tau(   8) = (  0.6666670  0.3333330  0.9145624  )
         9           C   tau(   9) = (  0.3333330  0.6666670  0.0854376  )
        10           C   tau(  10) = (  0.6666670  0.3333330  0.5854371  )

     number of k points=    61  gaussian smearing, width (Ry)=  0.0020
                       cart. coord. in units 2pi/alat
        k(    1) = (   0.0000000   0.0000000   0.0000000), wk =   0.0327869
        k(    2) = (   0.0250000   0.0144337   0.0000000), wk =   0.0327869
        k(    3) = (   0.0500000   0.0288675   0.0000000), wk =   0.0327869
        k(    4) = (   0.0750000   0.0433012   0.0000000), wk =   0.0327869
        k(    5) = (   0.1000000   0.0577350   0.0000000), wk =   0.0327869
        k(    6) = (   0.1250000   0.0721687   0.0000000), wk =   0.0327869
        k(    7) = (   0.1500000   0.0866025   0.0000000), wk =   0.0327869
        k(    8) = (   0.1750000   0.1010362   0.0000000), wk =   0.0327869
        k(    9) = (   0.2000000   0.1154700   0.0000000), wk =   0.0327869
        k(   10) = (   0.2250000   0.1299037   0.0000000), wk =   0.0327869
        k(   11) = (   0.2500000   0.1443375   0.0000000), wk =   0.0327869
        k(   12) = (   0.2750000   0.1587712   0.0000000), wk =   0.0327869
        k(   13) = (   0.3000000   0.1732050   0.0000000), wk =   0.0327869
        k(   14) = (   0.3250000   0.1876387   0.0000000), wk =   0.0327869
        k(   15) = (   0.3500000   0.2020725   0.0000000), wk =   0.0327869
        k(   16) = (   0.3750000   0.2165062   0.0000000), wk =   0.0327869
        k(   17) = (   0.4000000   0.2309400   0.0000000), wk =   0.0327869
        k(   18) = (   0.4250000   0.2453737   0.0000000), wk =   0.0327869
        k(   19) = (   0.4500000   0.2598075   0.0000000), wk =   0.0327869
        k(   20) = (   0.4750000   0.2742412   0.0000000), wk =   0.0327869
        k(   21) = (   0.5000000   0.2886750   0.0000000), wk =   0.0327869
        k(   22) = (   0.4944433   0.2982955   0.0000000), wk =   0.0327869
        k(   23) = (   0.4888867   0.3079161   0.0000000), wk =   0.0327869
        k(   24) = (   0.4833300   0.3175367   0.0000000), wk =   0.0327869
        k(   25) = (   0.4777733   0.3271573   0.0000000), wk =   0.0327869
        k(   26) = (   0.4722167   0.3367779   0.0000000), wk =   0.0327869
        k(   27) = (   0.4666600   0.3463984   0.0000000), wk =   0.0327869
        k(   28) = (   0.4611033   0.3560190   0.0000000), wk =   0.0327869
        k(   29) = (   0.4555467   0.3656396   0.0000000), wk =   0.0327869
        k(   30) = (   0.4499900   0.3752602   0.0000000), wk =   0.0327869
        k(   31) = (   0.4444333   0.3848808   0.0000000), wk =   0.0327869
        k(   32) = (   0.4388767   0.3945013   0.0000000), wk =   0.0327869
        k(   33) = (   0.4333200   0.4041219   0.0000000), wk =   0.0327869
        k(   34) = (   0.4277633   0.4137425   0.0000000), wk =   0.0327869
        k(   35) = (   0.4222067   0.4233631   0.0000000), wk =   0.0327869
        k(   36) = (   0.4166500   0.4329837   0.0000000), wk =   0.0327869
        k(   37) = (   0.4110933   0.4426042   0.0000000), wk =   0.0327869
        k(   38) = (   0.4055367   0.4522248   0.0000000), wk =   0.0327869
        k(   39) = (   0.3999800   0.4618454   0.0000000), wk =   0.0327869
        k(   40) = (   0.3944233   0.4714660   0.0000000), wk =   0.0327869
        k(   41) = (   0.3888667   0.4810866   0.0000000), wk =   0.0327869
        k(   42) = (   0.3833100   0.4907071   0.0000000), wk =   0.0327869
        k(   43) = (   0.3777533   0.5003277   0.0000000), wk =   0.0327869
        k(   44) = (   0.3721967   0.5099483   0.0000000), wk =   0.0327869
        k(   45) = (   0.3666400   0.5195689   0.0000000), wk =   0.0327869
        k(   46) = (   0.3610833   0.5291895   0.0000000), wk =   0.0327869
        k(   47) = (   0.3555267   0.5388100   0.0000000), wk =   0.0327869
        k(   48) = (   0.3499700   0.5484306   0.0000000), wk =   0.0327869
        k(   49) = (   0.3444133   0.5580512   0.0000000), wk =   0.0327869
        k(   50) = (   0.3388567   0.5676718   0.0000000), wk =   0.0327869
        k(   51) = (   0.3333000   0.5772924   0.0000000), wk =   0.0327869
        k(   52) = (   0.2999700   0.5195631   0.0000000), wk =   0.0327869
        k(   53) = (   0.2666400   0.4618339   0.0000000), wk =   0.0327869
        k(   54) = (   0.2333100   0.4041047   0.0000000), wk =   0.0327869
        k(   55) = (   0.1999800   0.3463754   0.0000000), wk =   0.0327869
        k(   56) = (   0.1666500   0.2886462   0.0000000), wk =   0.0327869
        k(   57) = (   0.1333200   0.2309169   0.0000000), wk =   0.0327869
        k(   58) = (   0.0999900   0.1731877   0.0000000), wk =   0.0327869
        k(   59) = (   0.0666600   0.1154585   0.0000000), wk =   0.0327869
        k(   60) = (   0.0333300   0.0577292   0.0000000), wk =   0.0327869
        k(   61) = (   0.0000000   0.0000000   0.0000000), wk =   0.0327869

                       cryst. coord.
        k(    1) = (   0.0000000   0.0000000   0.0000000), wk =   0.0327869
        k(    2) = (   0.0250000   0.0000000   0.0000000), wk =   0.0327869
        k(    3) = (   0.0500000   0.0000000   0.0000000), wk =   0.0327869
        k(    4) = (   0.0750000   0.0000000   0.0000000), wk =   0.0327869
        k(    5) = (   0.1000000   0.0000000   0.0000000), wk =   0.0327869
        k(    6) = (   0.1250000   0.0000000   0.0000000), wk =   0.0327869
        k(    7) = (   0.1500000   0.0000000   0.0000000), wk =   0.0327869
        k(    8) = (   0.1750000   0.0000000   0.0000000), wk =   0.0327869
        k(    9) = (   0.2000000   0.0000000   0.0000000), wk =   0.0327869
        k(   10) = (   0.2250000   0.0000000   0.0000000), wk =   0.0327869
        k(   11) = (   0.2500000   0.0000000   0.0000000), wk =   0.0327869
        k(   12) = (   0.2750000   0.0000000   0.0000000), wk =   0.0327869
        k(   13) = (   0.3000000   0.0000000   0.0000000), wk =   0.0327869
        k(   14) = (   0.3250000   0.0000000   0.0000000), wk =   0.0327869
        k(   15) = (   0.3500000   0.0000000   0.0000000), wk =   0.0327869
        k(   16) = (   0.3750000   0.0000000   0.0000000), wk =   0.0327869
        k(   17) = (   0.4000000   0.0000000   0.0000000), wk =   0.0327869
        k(   18) = (   0.4250000   0.0000000   0.0000000), wk =   0.0327869
        k(   19) = (   0.4500000   0.0000000   0.0000000), wk =   0.0327869
        k(   20) = (   0.4750000   0.0000000   0.0000000), wk =   0.0327869
        k(   21) = (   0.5000000   0.0000000   0.0000000), wk =   0.0327869
        k(   22) = (   0.4944433   0.0111100   0.0000000), wk =   0.0327869
        k(   23) = (   0.4888867   0.0222200   0.0000000), wk =   0.0327869
        k(   24) = (   0.4833300   0.0333300   0.0000000), wk =   0.0327869
        k(   25) = (   0.4777733   0.0444400   0.0000000), wk =   0.0327869
        k(   26) = (   0.4722167   0.0555500   0.0000000), wk =   0.0327869
        k(   27) = (   0.4666600   0.0666600   0.0000000), wk =   0.0327869
        k(   28) = (   0.4611033   0.0777700   0.0000000), wk =   0.0327869
        k(   29) = (   0.4555467   0.0888800   0.0000000), wk =   0.0327869
        k(   30) = (   0.4499900   0.0999900   0.0000000), wk =   0.0327869
        k(   31) = (   0.4444333   0.1111000   0.0000000), wk =   0.0327869
        k(   32) = (   0.4388767   0.1222100   0.0000000), wk =   0.0327869
        k(   33) = (   0.4333200   0.1333200   0.0000000), wk =   0.0327869
        k(   34) = (   0.4277633   0.1444300   0.0000000), wk =   0.0327869
        k(   35) = (   0.4222067   0.1555400   0.0000000), wk =   0.0327869
        k(   36) = (   0.4166500   0.1666500   0.0000000), wk =   0.0327869
        k(   37) = (   0.4110933   0.1777600   0.0000000), wk =   0.0327869
        k(   38) = (   0.4055367   0.1888700   0.0000000), wk =   0.0327869
        k(   39) = (   0.3999800   0.1999800   0.0000000), wk =   0.0327869
        k(   40) = (   0.3944233   0.2110900   0.0000000), wk =   0.0327869
        k(   41) = (   0.3888667   0.2222000   0.0000000), wk =   0.0327869
        k(   42) = (   0.3833100   0.2333100   0.0000000), wk =   0.0327869
        k(   43) = (   0.3777533   0.2444200   0.0000000), wk =   0.0327869
        k(   44) = (   0.3721967   0.2555300   0.0000000), wk =   0.0327869
        k(   45) = (   0.3666400   0.2666400   0.0000000), wk =   0.0327869
        k(   46) = (   0.3610833   0.2777500   0.0000000), wk =   0.0327869
        k(   47) = (   0.3555267   0.2888600   0.0000000), wk =   0.0327869
        k(   48) = (   0.3499700   0.2999700   0.0000000), wk =   0.0327869
        k(   49) = (   0.3444133   0.3110800   0.0000000), wk =   0.0327869
        k(   50) = (   0.3388567   0.3221900   0.0000000), wk =   0.0327869
        k(   51) = (   0.3333000   0.3333000   0.0000000), wk =   0.0327869
        k(   52) = (   0.2999700   0.2999700   0.0000000), wk =   0.0327869
        k(   53) = (   0.2666400   0.2666400   0.0000000), wk =   0.0327869
        k(   54) = (   0.2333100   0.2333100   0.0000000), wk =   0.0327869
        k(   55) = (   0.1999800   0.1999800   0.0000000), wk =   0.0327869
        k(   56) = (   0.1666500   0.1666500   0.0000000), wk =   0.0327869
        k(   57) = (   0.1333200   0.1333200   0.0000000), wk =   0.0327869
        k(   58) = (   0.0999900   0.0999900   0.0000000), wk =   0.0327869
        k(   59) = (   0.0666600   0.0666600   0.0000000), wk =   0.0327869
        k(   60) = (   0.0333300   0.0333300   0.0000000), wk =   0.0327869
        k(   61) = (   0.0000000   0.0000000   0.0000000), wk =   0.0327869

     Dense  grid:    18741 G-vectors     FFT dimensions: (  24,  24, 100)

     Dynamical RAM for                 wfc:       1.90 MB

     Dynamical RAM for     wfc (w. buffer):       1.90 MB

     Dynamical RAM for           str. fact:       0.57 MB

     Dynamical RAM for           local pot:       0.00 MB

     Dynamical RAM for          nlocal pot:       5.01 MB

     Dynamical RAM for                qrad:       1.64 MB

     Dynamical RAM for          rho,v,vnew:       2.18 MB

     Dynamical RAM for           G-vectors:       1.22 MB

     Dynamical RAM for          h,s,v(r/c):       2.06 MB

     Dynamical RAM for          <psi|beta>:       0.11 MB

     Dynamical RAM for                 psi:       7.58 MB

     Dynamical RAM for                hpsi:       7.58 MB

     Dynamical RAM for                spsi:       7.58 MB

     Dynamical RAM for      wfcinit/wfcrot:       5.57 MB

     Dynamical RAM for           addusdens:      54.91 MB

     Estimated static dynamical RAM per process >      15.56 MB

     Estimated max dynamical RAM per process >      70.46 MB

     Check: negative core charge=   -0.000376

     The potential is recalculated from file :
     ./out/\aiida.save\charge-density


     negative rho (up, down):  8.764E-03 0.000E+00
     Starting wfcs are   76 randomized atomic wfcs
     Checking if some PAW data can be deallocated... 

     Band Structure Calculation
     Davidson diagonalization with overlap

     Computing kpt #:     1
     total cpu time spent up to now is        7.8 secs

     Computing kpt #:     2
     total cpu time spent up to now is        9.9 secs

     Computing kpt #:     3
     total cpu time spent up to now is       12.1 secs

     Computing kpt #:     4
     total cpu time spent up to now is       13.9 secs

     Computing kpt #:     5
     total cpu time spent up to now is       15.9 secs

     Computing kpt #:     6
     total cpu time spent up to now is       17.6 secs

     Computing kpt #:     7
     total cpu time spent up to now is       19.3 secs

     Computing kpt #:     8
     total cpu time spent up to now is       21.1 secs

     Computing kpt #:     9
     total cpu time spent up to now is       23.5 secs

     Computing kpt #:    10
     total cpu time spent up to now is       25.3 secs

     Computing kpt #:    11
     total cpu time spent up to now is       27.0 secs

     Computing kpt #:    12
     total cpu time spent up to now is       28.9 secs

     Computing kpt #:    13
     total cpu time spent up to now is       30.8 secs

     Computing kpt #:    14
     total cpu time spent up to now is       32.6 secs

     Computing kpt #:    15
     total cpu time spent up to now is       34.7 secs

     Computing kpt #:    16
     total cpu time spent up to now is       36.3 secs

     Computing kpt #:    17
     total cpu time spent up to now is       38.0 secs

     Computing kpt #:    18
     total cpu time spent up to now is       40.1 secs

     Computing kpt #:    19
     total cpu time spent up to now is       42.6 secs

     Computing kpt #:    20
     total cpu time spent up to now is       45.2 secs

     Computing kpt #:    21
     total cpu time spent up to now is       47.7 secs

     Computing kpt #:    22
     total cpu time spent up to now is       50.2 secs

     Computing kpt #:    23
     total cpu time spent up to now is       52.8 secs

     Computing kpt #:    24
     total cpu time spent up to now is       57.6 secs

     Computing kpt #:    25
     total cpu time spent up to now is       59.9 secs

     Computing kpt #:    26
     total cpu time spent up to now is       62.4 secs

     Computing kpt #:    27
     total cpu time spent up to now is       65.0 secs

     Computing kpt #:    28
     total cpu time spent up to now is       67.9 secs

     Computing kpt #:    29
     total cpu time spent up to now is       70.6 secs

     Computing kpt #:    30
     total cpu time spent up to now is       72.7 secs

     Computing kpt #:    31
     total cpu time spent up to now is       75.2 secs

     Computing kpt #:    32
     total cpu time spent up to now is       77.9 secs

     Computing kpt #:    33
     total cpu time spent up to now is       80.3 secs

     Computing kpt #:    34
     total cpu time spent up to now is       82.8 secs

     Computing kpt #:    35
     total cpu time spent up to now is       84.6 secs

     Computing kpt #:    36
     total cpu time spent up to now is       86.8 secs

     Computing kpt #:    37
     total cpu time spent up to now is       89.5 secs

     Computing kpt #:    38
     total cpu time spent up to now is       91.9 secs

     Computing kpt #:    39
     total cpu time spent up to now is       94.5 secs

     Computing kpt #:    40
     total cpu time spent up to now is       96.7 secs

     Computing kpt #:    41
     total cpu time spent up to now is       98.7 secs

     Computing kpt #:    42
     total cpu time spent up to now is      100.4 secs

     Computing kpt #:    43
     total cpu time spent up to now is      102.3 secs

     Computing kpt #:    44
     total cpu time spent up to now is      103.9 secs

     Computing kpt #:    45
     total cpu time spent up to now is      105.5 secs

     Computing kpt #:    46
     total cpu time spent up to now is      107.3 secs

     Computing kpt #:    47
     total cpu time spent up to now is      109.4 secs

     Computing kpt #:    48
     total cpu time spent up to now is      111.5 secs

     Computing kpt #:    49
     total cpu time spent up to now is      113.3 secs

     Computing kpt #:    50
     total cpu time spent up to now is      114.9 secs

     Computing kpt #:    51
     total cpu time spent up to now is      116.6 secs

     Computing kpt #:    52
     total cpu time spent up to now is      118.4 secs

     Computing kpt #:    53
     total cpu time spent up to now is      120.7 secs

     Computing kpt #:    54
     total cpu time spent up to now is      122.3 secs

     Computing kpt #:    55
     total cpu time spent up to now is      124.4 secs

     Computing kpt #:    56
     total cpu time spent up to now is      126.0 secs

     Computing kpt #:    57
     total cpu time spent up to now is      127.7 secs

     Computing kpt #:    58
     total cpu time spent up to now is      129.6 secs

     Computing kpt #:    59
     total cpu time spent up to now is      131.3 secs

     Computing kpt #:    60
     total cpu time spent up to now is      133.4 secs

     Computing kpt #:    61
     total cpu time spent up to now is      135.0 secs

     ethr =  1.14E-09,  avg # of iterations = 28.6

     total cpu time spent up to now is      135.0 secs

     End of band structure calculation

          k = 0.0000 0.0000 0.0000 (  2317 PWs)   bands (ev):

   -43.6330 -43.6237 -43.6114 -43.6012 -43.4436 -43.4363 -20.2240 -20.0963
   -20.0955 -19.9041 -19.7025 -19.7025 -19.6972 -19.6972 -19.6859 -19.6859
   -19.6820 -19.6801 -19.6801 -19.6175 -19.5330 -19.5330 -19.5258 -19.5258
     1.2649   1.3335   2.6779   2.8050   7.4922   7.8622   9.7271  10.2748
    10.2748  10.3125  10.3125  10.5960  11.2721  11.4154  11.4155  11.5004
    11.5005  11.6937  13.6686  13.6686  13.6958  13.7977  13.7977  13.9531
    14.5910  14.5910  14.7332  14.7332  14.9428

          k = 0.0250 0.0144 0.0000 (  2325 PWs)   bands (ev):

   -43.6327 -43.6236 -43.6111 -43.6009 -43.4434 -43.4361 -20.2232 -20.0962
   -20.0948 -19.9041 -19.7048 -19.7031 -19.7030 -19.6977 -19.6880 -19.6865
   -19.6828 -19.6805 -19.6781 -19.6170 -19.5348 -19.5334 -19.5276 -19.5261
     1.2754   1.3437   2.6830   2.8090   7.5053   7.8748   9.7003  10.2763
    10.2791  10.2968  10.3165  10.6241  11.2038  11.4140  11.4625  11.4716
    11.4974  11.6963  13.6587  13.6755  13.6913  13.7829  13.8070  13.9539
    14.5718  14.5763  14.7265  14.7538  14.8971

          k = 0.0500 0.0289 0.0000 (  2327 PWs)   bands (ev):

   -43.6319 -43.6229 -43.6101 -43.6000 -43.4428 -43.4355 -20.2208 -20.0958
   -20.0926 -19.9043 -19.7159 -19.7105 -19.7049 -19.6991 -19.6944 -19.6902
   -19.6884 -19.6819 -19.6725 -19.6158 -19.5402 -19.5343 -19.5329 -19.5271
     1.3067   1.3741   2.6979   2.8208   7.5469   7.9131   9.6328  10.1956
    10.2913  10.3284  10.3495  10.6833  11.0748  11.3946  11.4077  11.4896
    11.5226  11.7076  13.6231  13.6844  13.6972  13.7360  13.8335  13.9577
    14.5111  14.5359  14.7350  14.7963  14.8126

          k = 0.0750 0.0433 0.0000 (  2305 PWs)   bands (ev):

   -43.6303 -43.6214 -43.6085 -43.5987 -43.4416 -43.4344 -20.2169 -20.0952
   -20.0889 -19.9047 -19.7316 -19.7206 -19.7079 -19.7053 -19.7015 -19.7012
   -19.6914 -19.6842 -19.6679 -19.6145 -19.5489 -19.5415 -19.5360 -19.5288
     1.3584   1.4241   2.7223   2.8401   7.6155   7.9769   9.5456  10.0987
    10.3124  10.3491  10.4115  10.7469  10.9228  11.2711  11.3981  11.4773
    11.5630  11.7336  13.5596  13.6556  13.6768  13.7330  13.8770  13.9666
    14.3996  14.5058  14.7165  14.7694  14.8329

          k = 0.1000 0.0577 0.0000 (  2317 PWs)   bands (ev):

   -43.6284 -43.6198 -43.6065 -43.5969 -43.4404 -43.4331 -20.2115 -20.0944
   -20.0839 -19.9054 -19.7502 -19.7343 -19.7204 -19.7152 -19.7120 -19.7046
   -19.6955 -19.6874 -19.6644 -19.6137 -19.5607 -19.5530 -19.5382 -19.5310
     1.4295   1.4931   2.7548   2.8659   7.7091   8.0630   9.4506   9.9934
    10.3377  10.3743  10.4554  10.7616  10.8044  11.1088  11.3827  11.4598
    11.5850  11.7690  13.4675  13.5451  13.6674  13.7821  13.9370  13.9785
    14.2717  14.4898  14.6187  14.8143  14.8162

          k = 0.1250 0.0722 0.0000 (  2323 PWs)   bands (ev):

   -43.6258 -43.6177 -43.6039 -43.5948 -43.4387 -43.4314 -20.2048 -20.0935
   -20.0778 -19.9066 -19.7713 -19.7514 -19.7387 -19.7320 -19.7171 -19.7086
   -19.7006 -19.6913 -19.6621 -19.6134 -19.5753 -19.5669 -19.5410 -19.5338
     1.5191   1.5799   2.7944   2.8973   7.8264   8.1699   9.3573   9.8872
    10.3681  10.4042  10.4295  10.6453  10.8505  10.9184  11.3629  11.4371
    11.6013  11.8062  13.3461  13.4108  13.6586  13.8445  13.9899  14.0130
    14.1505  14.4924  14.5299  14.8201  14.8596

          k = 0.1500 0.0866 0.0000 (  2323 PWs)   bands (ev):

   -43.6228 -43.6151 -43.6009 -43.5923 -43.4366 -43.4293 -20.1969 -20.0927
   -20.0708 -19.9084 -19.7947 -19.7713 -19.7592 -19.7514 -19.7230 -19.7133
   -19.7065 -19.6958 -19.6608 -19.6139 -19.5923 -19.5827 -19.5443 -19.5371
     1.6255   1.6831   2.8394   2.9331   7.9650   8.2947   9.2714   9.7836
    10.2787  10.4007  10.4362  10.6277  10.7072  10.8862  11.3396  11.4124
    11.6196  11.8385  13.1994  13.2596  13.6538  13.9205  13.9970  14.0461
    14.1045  14.4587  14.5144  14.8477  14.9017

          k = 0.1750 0.1010 0.0000 (  2321 PWs)   bands (ev):

   -43.6195 -43.6122 -43.5974 -43.5894 -43.4343 -43.4270 -20.1879 -20.0919
   -20.0630 -19.9112 -19.8199 -19.7937 -19.7812 -19.7729 -19.7295 -19.7185
   -19.7131 -19.7009 -19.6602 -19.6154 -19.6110 -19.5996 -19.5480 -19.5408
     1.7471   1.8009   2.8882   2.9720   8.1196   8.4324   9.1969   9.6849
    10.0810  10.4320  10.4675  10.4869  10.6355  10.9071  11.3160  11.3865
    11.6418  11.8641  13.0362  13.0997  13.6548  13.9592  13.9977  14.0104
    14.2107  14.4121  14.5537  14.8981  14.9427

          k = 0.2000 0.1155 0.0000 (  2329 PWs)   bands (ev):

   -43.6158 -43.6092 -43.5938 -43.5864 -43.4319 -43.4246 -20.1782 -20.0913
   -20.0551 -19.9153 -19.8464 -19.8179 -19.8039 -19.7959 -19.7366 -19.7241
   -19.7202 -19.7065 -19.6603 -19.6312 -19.6198 -19.6146 -19.5520 -19.5449
     1.8815   1.9313   2.9391   3.0129   8.2823   8.5762   9.1381   9.5940
     9.8749  10.2655  10.4584  10.4945  10.6377  10.9130  11.2915  11.3618
    11.6664  11.8830  12.8675  12.9350  13.6642  13.8863  13.9943  14.1145
    14.3303  14.3918  14.6061  14.9696  14.9868

          k = 0.2250 0.1299 0.0000 (  2315 PWs)   bands (ev):

   -43.6118 -43.6059 -43.5899 -43.5830 -43.4292 -43.4219 -20.1680 -20.0910
   -20.0473 -19.9212 -19.8738 -19.8433 -19.8266 -19.8190 -19.7441 -19.7300
   -19.7276 -19.7123 -19.6612 -19.6517 -19.6358 -19.6188 -19.5563 -19.5491
     2.0262   2.0717   2.9908   3.0547   8.4384   8.7119   9.1047   9.5165
     9.6746  10.0579  10.4771  10.5145  10.6300  10.9052  11.2718  11.3431
    11.6912  11.8977  12.7023  12.7720  13.6820  13.8263  13.9970  14.2331
    14.3947  14.4626  14.6674  15.0380  15.0598

          k = 0.2500 0.1443 0.0000 (  2327 PWs)   bands (ev):

   -43.6079 -43.6026 -43.5859 -43.5798 -43.4266 -43.4193 -20.1575 -20.0911
   -20.0405 -19.9295 -19.9012 -19.8693 -19.8500 -19.8396 -19.7516 -19.7361
   -19.7352 -19.7182 -19.6729 -19.6618 -19.6526 -19.6219 -19.5607 -19.5535
     2.1778   2.2188   3.0420   3.0967   8.5550   8.8139   9.1160   9.4556
     9.4913   9.8799  10.4850  10.5240  10.6123  10.8822  11.2577  11.3315
    11.7128  11.9110  12.5475  12.6134  13.7054  13.7786  14.0155  14.3646
    14.4158  14.6057  14.7334  15.0948  15.1150

          k = 0.2750 0.1588 0.0000 (  2329 PWs)   bands (ev):

   -43.6039 -43.5993 -43.5818 -43.5764 -43.4239 -43.4166 -20.1472 -20.0917
   -20.0354 -19.9404 -19.9280 -19.8952 -19.8743 -19.8552 -19.7592 -19.7428
   -19.7422 -19.7242 -19.6929 -19.6686 -19.6633 -19.6254 -19.5651 -19.5579
     2.3324   2.3690   3.0923   3.1389   8.5906   8.8434   9.1926   9.3464
     9.4250   9.7640  10.4812  10.5223  10.5873  10.8475  11.2510  11.3303
    11.7290  11.9273  12.4095  12.4623  13.7224  13.7536  14.0586  14.4534
    14.5067  14.7575  14.8051  15.1335  15.1587

          k = 0.3000 0.1732 0.0000 (  2339 PWs)   bands (ev):

   -43.6001 -43.5961 -43.5779 -43.5733 -43.4214 -43.4141 -20.1376 -20.0925
   -20.0332 -19.9540 -19.9526 -19.9205 -19.8984 -19.8654 -19.7665 -19.7502
   -19.7481 -19.7300 -19.7119 -19.6830 -19.6652 -19.6292 -19.5694 -19.5622
     2.4854   2.5175   3.1422   3.1820   8.5388   8.7776   9.2088   9.3675
     9.4063   9.7482  10.4660  10.5094  10.5554  10.8014  11.2519  11.3363
    11.7373  11.9488  12.2945  12.3207  13.7049  13.7775  14.1310  14.5084
    14.6553  14.8855  14.9147  15.1614  15.2259

          k = 0.3250 0.1876 0.0000 (  2351 PWs)   bands (ev):

   -43.5964 -43.5930 -43.5744 -43.5703 -43.4190 -43.4117 -20.1293 -20.0935
   -20.0349 -19.9769 -19.9661 -19.9444 -19.9214 -19.8707 -19.7735 -19.7571
   -19.7537 -19.7355 -19.7294 -19.6958 -19.6672 -19.6331 -19.5736 -19.5664
     2.6304   2.6583   3.1934   3.2278   8.4276   8.6463   9.1521   9.3781
     9.5305   9.8205  10.4414  10.4905  10.5179  10.7490  11.2598  11.3492
    11.7334  11.9773  12.1897  12.2119  13.6874  13.8110  14.2334  14.5828
    14.8029  14.9811  15.0739  15.1981  15.2923

          k = 0.3500 0.2021 0.0000 (  2345 PWs)   bands (ev):

   -43.5930 -43.5902 -43.5707 -43.5675 -43.4167 -43.4094 -20.1230 -20.0945
   -20.0406 -19.9971 -19.9776 -19.9664 -19.9427 -19.8719 -19.7798 -19.7635
   -19.7588 -19.7449 -19.7406 -19.7069 -19.6692 -19.6371 -19.5774 -19.5702
     2.7602   2.7842   3.2489   3.2792   8.2911   8.4891   9.1238   9.3498
     9.7010   9.9309  10.4142  10.4656  10.4779  10.6941  11.2715  11.3670
    11.7114  12.0132  12.0719  12.1722  13.6768  13.8435  14.3656  14.6785
    14.9378  15.0995  15.2314  15.2396  15.3538

          k = 0.3750 0.2165 0.0000 (  2353 PWs)   bands (ev):

   -43.5899 -43.5877 -43.5677 -43.5650 -43.4147 -43.4074 -20.1196 -20.0951
   -20.0495 -20.0135 -19.9871 -19.9860 -19.9616 -19.8701 -19.7855 -19.7692
   -19.7635 -19.7583 -19.7451 -19.7164 -19.6712 -19.6409 -19.5808 -19.5736
     2.8669   2.8875   3.3116   3.3390   8.1489   8.3287   9.1154   9.3272
     9.8574  10.0461  10.3846  10.4372  10.4387  10.6402  11.2830  11.3845
    11.6707  11.9676  12.0568  12.1748  13.6705  13.8718  14.5235  14.7959
    15.0529  15.2391  15.2821  15.3807  15.4068

          k = 0.4000 0.2309 0.0000 (  2351 PWs)   bands (ev):

   -43.5873 -43.5856 -43.5651 -43.5628 -43.4130 -43.4057 -20.1189 -20.0958
   -20.0596 -20.0253 -20.0027 -19.9945 -19.9778 -19.8663 -19.7904 -19.7740
   -19.7693 -19.7674 -19.7489 -19.7244 -19.6730 -19.6443 -19.5837 -19.5765
     2.9461   2.9642   3.3812   3.4064   8.0174   8.1818   9.1175   9.3133
     9.9918  10.1492  10.3567  10.3984  10.4133  10.5916  11.2948  11.4017
    11.6207  11.8793  12.1085  12.2055  13.6669  13.8944  14.7005  14.9313
    15.1534  15.3243  15.3859  15.4498  15.5162

          k = 0.4250 0.2454 0.0000 (  2352 PWs)   bands (ev):

   -43.5852 -43.5838 -43.5629 -43.5611 -43.4116 -43.4043 -20.1202 -20.0970
   -20.0690 -20.0326 -20.0158 -20.0005 -19.9907 -19.8617 -19.7942 -19.7779
   -19.7779 -19.7705 -19.7520 -19.7310 -19.6746 -19.6472 -19.5861 -19.5789
     2.9994   3.0158   3.4510   3.4745   7.9045   8.0557   9.1243   9.3052
    10.0987  10.2333  10.3327  10.3642  10.3911  10.5510  11.3046  11.4161
    11.5722  11.8081  12.1654  12.2461  13.6644  13.9103  14.8837  15.0768
    15.2408  15.3652  15.4845  15.5233  15.6311

          k = 0.4500 0.2598 0.0000 (  2348 PWs)   bands (ev):

   -43.5838 -43.5824 -43.5614 -43.5598 -43.4106 -43.4032 -20.1222 -20.0987
   -20.0764 -20.0366 -20.0250 -20.0051 -20.0000 -19.8575 -19.7971 -19.7841
   -19.7807 -19.7729 -19.7543 -19.7359 -19.6758 -19.6494 -19.5878 -19.5806
     3.0322   3.0476   3.5107   3.5330   7.8187   7.9604   9.1319   9.3013
    10.1783  10.2936  10.3148  10.3340  10.3746  10.5220  11.3120  11.4275
    11.5334  11.7558  12.2202  12.2812  13.6623  13.9200  15.0513  15.2191
    15.3107  15.4065  15.5100  15.6412  15.7193

          k = 0.4750 0.2742 0.0000 (  2340 PWs)   bands (ev):

   -43.5828 -43.5816 -43.5603 -43.5590 -43.4099 -43.4026 -20.1238 -20.1001
   -20.0812 -20.0390 -20.0299 -20.0083 -20.0054 -19.8544 -19.7988 -19.7878
   -19.7824 -19.7743 -19.7557 -19.7390 -19.6766 -19.6508 -19.5889 -19.5816
     3.0498   3.0647   3.5506   3.5722   7.7655   7.9008   9.1378   9.2998
    10.2327  10.3040  10.3082  10.3288  10.3641  10.5059  11.3166  11.4354
    11.5086  11.7240  12.2647  12.2998  13.6609  13.9250  15.1684  15.3339
    15.3581  15.4473  15.5263  15.7285  15.7753

          k = 0.5000 0.2887 0.0000 (  2350 PWs)   bands (ev):

   -43.5826 -43.5813 -43.5600 -43.5588 -43.4098 -43.4024 -20.1245 -20.1006
   -20.0828 -20.0399 -20.0313 -20.0096 -20.0070 -19.8534 -19.7994 -19.7890
   -19.7830 -19.7747 -19.7562 -19.7401 -19.6768 -19.6513 -19.5892 -19.5820
     3.0552   3.0699   3.5646   3.5859   7.7458   7.8804   9.1382   9.3001
    10.2581  10.2921  10.2996  10.3395  10.3603  10.5001  11.3175  11.4381
    11.4999  11.7130  12.2868  12.3000  13.6604  13.9264  15.2077  15.3742
    15.3805  15.4681  15.5310  15.7669  15.7945

          k = 0.4944 0.2983 0.0000 (  2352 PWs)   bands (ev):

   -43.5826 -43.5814 -43.5600 -43.5588 -43.4098 -43.4024 -20.1244 -20.1004
   -20.0827 -20.0399 -20.0313 -20.0095 -20.0069 -19.8534 -19.7996 -19.7890
   -19.7832 -19.7751 -19.7566 -19.7400 -19.6767 -19.6512 -19.5895 -19.5822
     3.0560   3.0707   3.5646   3.5858   7.7476   7.8820   9.1388   9.3006
    10.2584  10.2873  10.3029  10.3398  10.3586  10.5013  11.2919  11.4164
    11.5243  11.7334  12.2873  12.3004  13.6612  13.9268  15.1914  15.3109
    15.3751  15.4638  15.5839  15.7782  15.8099

          k = 0.4889 0.3079 0.0000 (  2352 PWs)   bands (ev):

   -43.5825 -43.5813 -43.5600 -43.5587 -43.4098 -43.4024 -20.1241 -20.1000
   -20.0822 -20.0398 -20.0311 -20.0091 -20.0065 -19.8536 -19.8003 -19.7890
   -19.7839 -19.7762 -19.7578 -19.7396 -19.6763 -19.6510 -19.5902 -19.5829
     3.0584   3.0731   3.5645   3.5856   7.7535   7.8870   9.1410   9.3012
    10.2594  10.2785  10.3083  10.3413  10.3536  10.5048  11.2361  11.3650
    11.5768  11.7833  12.2889  12.3018  13.6637  13.9280  15.1471  15.2013
    15.3595  15.4516  15.6503  15.8230  15.8494

          k = 0.4833 0.3175 0.0000 (  2346 PWs)   bands (ev):

   -43.5824 -43.5813 -43.5599 -43.5586 -43.4097 -43.4023 -20.1237 -20.0992
   -20.0815 -20.0395 -20.0308 -20.0085 -20.0060 -19.8539 -19.8015 -19.7890
   -19.7849 -19.7778 -19.7598 -19.7390 -19.6756 -19.6507 -19.5913 -19.5840
     3.0624   3.0770   3.5643   3.5852   7.7623   7.8951   9.1443   9.3037
    10.2612  10.2685  10.3133  10.3434  10.3466  10.5104  11.1700  11.3011
    11.6379  11.8469  12.2915  12.3038  13.6679  13.9300  15.0833  15.0861
    15.3350  15.4334  15.6841  15.8536  15.8918

          k = 0.4778 0.3272 0.0000 (  2350 PWs)   bands (ev):

   -43.5823 -43.5812 -43.5598 -43.5585 -43.4096 -43.4023 -20.1230 -20.0982
   -20.0805 -20.0393 -20.0304 -20.0078 -20.0052 -19.8544 -19.8031 -19.7895
   -19.7864 -19.7797 -19.7625 -19.7383 -19.6747 -19.6502 -19.5930 -19.5856
     3.0680   3.0825   3.5640   3.5847   7.7747   7.9062   9.1489   9.3071
    10.2564  10.2634  10.3175  10.3354  10.3460  10.5169  11.0982  11.2308
    11.7006  11.9166  12.2951  12.3067  13.6735  13.9326  14.9675  15.0107
    15.3035  15.4105  15.6982  15.8570  15.9142

          k = 0.4722 0.3368 0.0000 (  2354 PWs)   bands (ev):

   -43.5822 -43.5811 -43.5597 -43.5585 -43.4095 -43.4022 -20.1222 -20.0968
   -20.0792 -20.0391 -20.0298 -20.0067 -20.0042 -19.8549 -19.8051 -19.7908
   -19.7883 -19.7813 -19.7658 -19.7374 -19.6737 -19.6497 -19.5951 -19.5876
     3.0751   3.0895   3.5636   3.5840   7.7904   7.9204   9.1546   9.3114
    10.2427  10.2656  10.3211  10.3231  10.3492  10.5244  11.0240  11.1576
    11.7640  11.9897  12.2994  12.3105  13.6810  13.9359  14.8508  14.9317
    15.2667  15.3837  15.7062  15.8613  15.9292

          k = 0.4667 0.3464 0.0000 (  2358 PWs)   bands (ev):

   -43.5820 -43.5810 -43.5596 -43.5584 -43.4095 -43.4021 -20.1212 -20.0952
   -20.0776 -20.0389 -20.0289 -20.0055 -20.0030 -19.8556 -19.8076 -19.7937
   -19.7905 -19.7818 -19.7697 -19.7365 -19.6725 -19.6491 -19.5976 -19.5900
     3.0837   3.0979   3.5632   3.5831   7.8096   7.9378   9.1617   9.3167
    10.2280  10.2681  10.3067  10.3273  10.3532  10.5326  10.9483  11.0825
    11.8257  12.0641  12.3046  12.3152  13.6901  13.9396  14.7354  14.8509
    15.2262  15.3539  15.7122  15.8663  15.9422

          k = 0.4611 0.3560 0.0000 (  2356 PWs)   bands (ev):

   -43.5818 -43.5808 -43.5594 -43.5582 -43.4093 -43.4020 -20.1200 -20.0932
   -20.0757 -20.0388 -20.0278 -20.0041 -20.0016 -19.8565 -19.8105 -19.7978
   -19.7931 -19.7816 -19.7741 -19.7354 -19.6713 -19.6485 -19.6005 -19.5928
     3.0937   3.1077   3.5626   3.5820   7.8321   7.9586   9.1698   9.3229
    10.2109  10.2707  10.2913  10.3321  10.3573  10.5419  10.8713  11.0071
    11.8878  12.1408  12.3104  12.3211  13.7007  13.9438  14.6224  14.7700
    15.1832  15.3217  15.7177  15.8712  15.9528

          k = 0.4555 0.3656 0.0000 (  2356 PWs)   bands (ev):

   -43.5816 -43.5806 -43.5591 -43.5580 -43.4092 -43.4018 -20.1187 -20.0910
   -20.0735 -20.0389 -20.0263 -20.0024 -19.9999 -19.8575 -19.8138 -19.8029
   -19.7960 -19.7811 -19.7786 -19.7341 -19.6700 -19.6479 -19.6038 -19.5959
     3.1052   3.1189   3.5618   3.5807   7.8578   7.9817   9.1791   9.3299
    10.1928  10.2726  10.2735  10.3375  10.3612  10.5514  10.7947  10.9318
    11.9484  12.2184  12.3167  12.3282  13.7127  13.9484  14.5119  14.6906
    15.1383  15.2878  15.7231  15.8761  15.9599

          k = 0.4500 0.3753 0.0000 (  2353 PWs)   bands (ev):

   -43.5813 -43.5804 -43.5589 -43.5578 -43.4090 -43.4017 -20.1172 -20.0885
   -20.0711 -20.0391 -20.0246 -20.0006 -19.9981 -19.8587 -19.8175 -19.8087
   -19.7993 -19.7848 -19.7791 -19.7328 -19.6687 -19.6474 -19.6075 -19.5994
     3.1180   3.1314   3.5609   3.5792   7.8865   8.0077   9.1894   9.3376
    10.1732  10.2545  10.2741  10.3430  10.3644  10.5609  10.7188  10.8577
    12.0082  12.2983  12.3235  12.3369  13.7262  13.9531  14.4043  14.6134
    15.0927  15.2525  15.7289  15.8800  15.9633

          k = 0.4444 0.3849 0.0000 (  2357 PWs)   bands (ev):

   -43.5811 -43.5803 -43.5587 -43.5576 -43.4089 -43.4015 -20.1156 -20.0857
   -20.0684 -20.0393 -20.0227 -19.9985 -19.9961 -19.8601 -19.8215 -19.8150
   -19.8028 -19.7904 -19.7778 -19.7314 -19.6675 -19.6469 -19.6116 -19.6032
     3.1320   3.1452   3.5598   3.5775   7.9178   8.0364   9.2009   9.3462
    10.1519  10.2342  10.2739  10.3485  10.3659  10.5704  10.6439  10.7843
    12.0651  12.3307  12.3473  12.3780  13.7404  13.9578  14.3000  14.5392
    15.0468  15.2160  15.7353  15.8813  15.9628

          k = 0.4389 0.3945 0.0000 (  2347 PWs)   bands (ev):

   -43.5808 -43.5799 -43.5584 -43.5573 -43.4086 -43.4013 -20.1138 -20.0826
   -20.0654 -20.0398 -20.0204 -19.9963 -19.9940 -19.8617 -19.8259 -19.8217
   -19.8066 -19.7965 -19.7761 -19.7298 -19.6663 -19.6464 -19.6160 -19.6072
     3.1471   3.1600   3.5585   3.5755   7.9526   8.0678   9.2130   9.3556
    10.1300  10.2131  10.2705  10.3544  10.3657  10.5734  10.5804  10.7158
    12.1199  12.3381  12.3603  12.4585  13.7559  13.9628  14.1988  14.4690
    15.0009  15.1795  15.7425  15.8800  15.9578

          k = 0.4333 0.4041 0.0000 (  2339 PWs)   bands (ev):

   -43.5803 -43.5796 -43.5581 -43.5570 -43.4084 -43.4011 -20.1119 -20.0793
   -20.0622 -20.0403 -20.0180 -19.9939 -19.9917 -19.8635 -19.8305 -19.8289
   -19.8106 -19.8029 -19.7743 -19.7281 -19.6652 -19.6460 -19.6207 -19.6115
     3.1633   3.1759   3.5570   3.5733   7.9898   8.1024   9.2259   9.3656
    10.1073  10.1914  10.2606  10.3578  10.3607  10.5095  10.5902  10.6542
    12.1700  12.3460  12.3770  12.5401  13.7714  13.9675  14.1018  14.4020
    14.9556  15.1422  15.7514  15.8727  15.9489

          k = 0.4278 0.4137 0.0000 (  2351 PWs)   bands (ev):

   -43.5800 -43.5795 -43.5579 -43.5569 -43.4083 -43.4009 -20.1099 -20.0757
   -20.0588 -20.0409 -20.0153 -19.9914 -19.9892 -19.8655 -19.8363 -19.8354
   -19.8148 -19.8095 -19.7722 -19.7263 -19.6641 -19.6458 -19.6257 -19.6160
     3.1805   3.1928   3.5552   3.5707   8.0292   8.1381   9.2389   9.3757
    10.0832  10.1681  10.2373  10.3386  10.3666  10.4577  10.5997  10.6033
    12.2147  12.3538  12.3985  12.6225  13.7858  13.9719  14.0092  14.3389
    14.9103  15.1044  15.7601  15.8591  15.9354

          k = 0.4222 0.4234 0.0000 (  2347 PWs)   bands (ev):

   -43.5798 -43.5791 -43.5576 -43.5566 -43.4081 -43.4007 -20.1077 -20.0719
   -20.0551 -20.0417 -20.0124 -19.9887 -19.9867 -19.8677 -19.8441 -19.8406
   -19.8191 -19.8163 -19.7700 -19.7245 -19.6632 -19.6456 -19.6309 -19.6206
     3.1985   3.2105   3.5531   3.5680   8.0711   8.1757   9.2529   9.3867
    10.0595  10.1441  10.1986  10.3044  10.3738  10.4235  10.5694  10.6091
    12.2525  12.3620  12.4261  12.7060  13.7949  13.9270  13.9762  14.2808
    14.8661  15.0668  15.7701  15.8409  15.9193

          k = 0.4167 0.4330 0.0000 (  2351 PWs)   bands (ev):

   -43.5795 -43.5789 -43.5572 -43.5564 -43.4079 -43.4005 -20.1054 -20.0678
   -20.0511 -20.0425 -20.0093 -19.9859 -19.9840 -19.8701 -19.8520 -19.8459
   -19.8235 -19.8233 -19.7676 -19.7225 -19.6623 -19.6455 -19.6363 -19.6253
     3.2172   3.2288   3.5507   3.5649   8.1148   8.2149   9.2667   9.3978
    10.0352  10.1189  10.1430  10.2558  10.3806  10.4059  10.5512  10.6181
    12.2830  12.3703  12.4602  12.7900  13.7780  13.8747  13.9802  14.2270
    14.8225  15.0292  15.7812  15.8186  15.8995

          k = 0.4111 0.4426 0.0000 (  2345 PWs)   bands (ev):

   -43.5791 -43.5786 -43.5568 -43.5561 -43.4076 -43.4003 -20.1031 -20.0635
   -20.0470 -20.0435 -20.0060 -19.9830 -19.9813 -19.8728 -19.8602 -19.8514
   -19.8304 -19.8279 -19.7651 -19.7204 -19.6615 -19.6455 -19.6419 -19.6302
     3.2365   3.2478   3.5480   3.5615   8.1602   8.2559   9.2807   9.4097
    10.0111  10.0790  10.0945  10.1979  10.3882  10.3990  10.5451  10.6266
    12.3072  12.3790  12.4994  12.8750  13.7170  13.8706  13.9841  14.1783
    14.7800  14.9921  15.7936  15.7943  15.8774

          k = 0.4055 0.4522 0.0000 (  2349 PWs)   bands (ev):

   -43.5788 -43.5783 -43.5565 -43.5559 -43.4074 -43.4001 -20.1007 -20.0589
   -20.0446 -20.0426 -20.0026 -19.9800 -19.9786 -19.8756 -19.8685 -19.8571
   -19.8375 -19.8324 -19.7624 -19.7182 -19.6609 -19.6477 -19.6456 -19.6350
     3.2561   3.2671   3.5449   3.5578   8.2070   8.2979   9.2938   9.4215
     9.9868  10.0098  10.0700  10.1329  10.3951  10.3981  10.5459  10.6341
    12.3266  12.3880  12.5419  12.9601  13.6428  13.8830  13.9878  14.1345
    14.7380  14.9553  15.7694  15.8069  15.8528

          k = 0.4000 0.4618 0.0000 (  2351 PWs)   bands (ev):

   -43.5785 -43.5781 -43.5562 -43.5556 -43.4072 -43.3999 -20.0981 -20.0542
   -20.0458 -20.0381 -19.9991 -19.9771 -19.9759 -19.8787 -19.8770 -19.8628
   -19.8446 -19.8370 -19.7596 -19.7159 -19.6603 -19.6535 -19.6458 -19.6398
     3.2761   3.2868   3.5415   3.5537   8.2548   8.3408   9.3076   9.4334
     9.9389   9.9623  10.0453  10.0656  10.4001  10.4012  10.5511  10.6413
    12.3429  12.3975  12.5859  13.0455  13.5682  13.8994  13.9915  14.0957
    14.6977  14.9192  15.7456  15.8220  15.8267

          k = 0.3944 0.4715 0.0000 (  2351 PWs)   bands (ev):

   -43.5782 -43.5778 -43.5558 -43.5554 -43.4070 -43.3997 -20.0956 -20.0493
   -20.0471 -20.0333 -19.9954 -19.9741 -19.9733 -19.8855 -19.8818 -19.8685
   -19.8516 -19.8415 -19.7567 -19.7136 -19.6598 -19.6594 -19.6460 -19.6446
     3.2963   3.3066   3.5378   3.5494   8.3033   8.3842   9.3211   9.4454
     9.8685   9.9389   9.9975  10.0210  10.4042  10.4079  10.5589  10.6476
    12.3571  12.4074  12.6298  13.1306  13.4964  13.9163  13.9951  14.0621
    14.6587  14.8834  15.7234  15.7990  15.8374

          k = 0.3889 0.4811 0.0000 (  2351 PWs)   bands (ev):

   -43.5779 -43.5776 -43.5555 -43.5551 -43.4068 -43.3995 -20.0930 -20.0485
   -20.0441 -20.0284 -19.9917 -19.9712 -19.9707 -19.8940 -19.8850 -19.8742
   -19.8583 -19.8460 -19.7536 -19.7112 -19.6653 -19.6594 -19.6493 -19.6464
     3.3163   3.3263   3.5336   3.5447   8.3520   8.4276   9.3342   9.4574
     9.7994   9.9162   9.9302   9.9970  10.4092  10.4143  10.5682  10.6531
    12.3696  12.4178  12.6728  13.2152  13.4280  13.9332  13.9986  14.0335
    14.6214  14.8482  15.7035  15.7706  15.8086

          k = 0.3833 0.4907 0.0000 (  2351 PWs)   bands (ev):

   -43.5776 -43.5772 -43.5552 -43.5549 -43.4066 -43.3993 -20.0903 -20.0500
   -20.0389 -20.0234 -19.9879 -19.9685 -19.9684 -19.9025 -19.8881 -19.8799
   -19.8648 -19.8505 -19.7505 -19.7087 -19.6712 -19.6591 -19.6538 -19.6468
     3.3362   3.3459   3.5291   3.5397   8.4004   8.4705   9.3466   9.4695
     9.7318   9.8653   9.8943   9.9736  10.4147  10.4204  10.5784  10.6574
    12.3809  12.4287  12.7140  13.2987  13.3632  13.9495  14.0022  14.0097
    14.5859  14.8133  15.6861  15.7420  15.7781

          k = 0.3778 0.5003 0.0000 (  2351 PWs)   bands (ev):

   -43.5773 -43.5770 -43.5549 -43.5547 -43.4065 -43.3991 -20.0877 -20.0516
   -20.0335 -20.0181 -19.9840 -19.9665 -19.9661 -19.9109 -19.8910 -19.8854
   -19.8708 -19.8550 -19.7472 -19.7062 -19.6770 -19.6589 -19.6583 -19.6472
     3.3556   3.3651   3.5243   3.5344   8.4478   8.5124   9.3582   9.4811
     9.6679   9.8030   9.8738   9.9510  10.4205  10.4260  10.5890  10.6608
    12.3910  12.4401  12.7535  13.3021  13.3802  13.9647  13.9907  14.0059
    14.5528  14.7790  15.6718  15.7137  15.7479

          k = 0.3722 0.5099 0.0000 (  2353 PWs)   bands (ev):

   -43.5771 -43.5768 -43.5547 -43.5545 -43.4063 -43.3989 -20.0850 -20.0533
   -20.0279 -20.0128 -19.9802 -19.9649 -19.9640 -19.9193 -19.8938 -19.8905
   -19.8762 -19.8595 -19.7438 -19.7036 -19.6828 -19.6625 -19.6587 -19.6477
     3.3745   3.3837   3.5190   3.5288   8.4943   8.5525   9.3689   9.4921
     9.6079   9.7442   9.8545   9.9284  10.4261  10.4310  10.5997  10.6631
    12.3999  12.4519  12.7907  13.2449  13.4586  13.9762  13.9785  14.0098
    14.5228  14.7456  15.6604  15.6865  15.7187

          k = 0.3666 0.5196 0.0000 (  2355 PWs)   bands (ev):

   -43.5768 -43.5766 -43.5544 -43.5543 -43.4062 -43.3988 -20.0824 -20.0552
   -20.0224 -20.0074 -19.9765 -19.9638 -19.9623 -19.9274 -19.8969 -19.8945
   -19.8810 -19.8639 -19.7403 -19.7010 -19.6884 -19.6665 -19.6586 -19.6481
     3.3925   3.4015   3.5133   3.5228   8.5373   8.5901   9.3783   9.5025
     9.5530   9.6906   9.8371   9.9084  10.4314  10.4354  10.6094  10.6644
    12.4076  12.4639  12.8254  13.1918  13.5327  13.9656  13.9908  14.0135
    14.4967  14.7120  15.6523  15.6610  15.6910

          k = 0.3611 0.5292 0.0000 (  2355 PWs)   bands (ev):

   -43.5766 -43.5765 -43.5542 -43.5541 -43.4060 -43.3986 -20.0798 -20.0571
   -20.0168 -20.0019 -19.9729 -19.9635 -19.9613 -19.9352 -19.9012 -19.8963
   -19.8849 -19.8684 -19.7367 -19.6984 -19.6938 -19.6703 -19.6586 -19.6486
     3.4096   3.4184   3.5073   3.5165   8.5766   8.6242   9.3862   9.5043
     9.5120   9.6430   9.8217   9.8901  10.4363  10.4391  10.6194  10.6647
    12.4142  12.4759  12.8574  13.1430  13.6007  13.9586  14.0017  14.0171
    14.4760  14.6785  15.6380  15.6471  15.6657

          k = 0.3555 0.5388 0.0000 (  2359 PWs)   bands (ev):

   -43.5765 -43.5763 -43.5541 -43.5540 -43.4059 -43.3985 -20.0772 -20.0591
   -20.0113 -19.9964 -19.9697 -19.9638 -19.9609 -19.9426 -19.9053 -19.8970
   -19.8878 -19.8729 -19.7330 -19.6991 -19.6958 -19.6739 -19.6586 -19.6491
     3.4254   3.4341   3.5010   3.5099   8.6109   8.6538   9.3923   9.4629
     9.5201   9.6025   9.8086   9.8741  10.4406  10.4421  10.6273  10.6634
    12.4193  12.4875  12.8868  13.0987  13.6603  13.9546  14.0107  14.0204
    14.4625  14.6451  15.6183  15.6425  15.6442

          k = 0.3500 0.5484 0.0000 (  2357 PWs)   bands (ev):

   -43.5763 -43.5762 -43.5539 -43.5539 -43.4058 -43.3984 -20.0747 -20.0611
   -20.0061 -19.9911 -19.9669 -19.9648 -19.9611 -19.9494 -19.9089 -19.8967
   -19.8896 -19.8773 -19.7292 -19.7041 -19.6932 -19.6772 -19.6586 -19.6494
     3.4398   3.4484   3.4943   3.5031   8.6389   8.6779   9.3964   9.4302
     9.5265   9.5705   9.7984   9.8609  10.4441  10.4447  10.6360  10.6618
    12.4233  12.4981  12.9135  13.0594  13.7090  13.9529  14.0180  14.0233
    14.4581  14.6116  15.6028  15.6231  15.6431

          k = 0.3444 0.5581 0.0000 (  2353 PWs)   bands (ev):

   -43.5762 -43.5761 -43.5538 -43.5537 -43.4057 -43.3983 -20.0722 -20.0633
   -20.0015 -19.9860 -19.9663 -19.9651 -19.9616 -19.9552 -19.9116 -19.8955
   -19.8905 -19.8817 -19.7254 -19.7088 -19.6906 -19.6803 -19.6587 -19.6497
     3.4526   3.4611   3.4873   3.4959   8.6596   8.6956   9.3984   9.4078
     9.5311   9.5478   9.7907   9.8514  10.4465  10.4468  10.6433  10.6596
    12.4261  12.5068  12.9377  13.0256  13.7446  13.9528  14.0232  14.0256
    14.4644  14.5780  15.5923  15.6072  15.6433

          k = 0.3389 0.5677 0.0000 (  2357 PWs)   bands (ev):

   -43.5761 -43.5761 -43.5538 -43.5537 -43.4057 -43.3983 -20.0698 -20.0654
   -19.9982 -19.9820 -19.9675 -19.9652 -19.9615 -19.9594 -19.9134 -19.8936
   -19.8904 -19.8859 -19.7215 -19.7133 -19.6880 -19.6831 -19.6587 -19.6499
     3.4635   3.4719   3.4800   3.4885   8.6719   8.7058   9.3957   9.3974
     9.5330   9.5344   9.7850   9.8448  10.4478  10.4483  10.6487  10.6565
    12.4276  12.5127  12.9588  12.9981  13.7654  13.9535  14.0265  14.0272
    14.4824  14.5445  15.5873  15.5957  15.6440

          k = 0.3333 0.5773 0.0000 (  2349 PWs)   bands (ev):

   -43.5760 -43.5760 -43.5537 -43.5537 -43.4056 -43.3983 -20.0676 -20.0676
   -19.9969 -19.9803 -19.9668 -19.9668 -19.9611 -19.9611 -19.9140 -19.8918
   -19.8894 -19.8894 -19.7175 -19.7175 -19.6856 -19.6856 -19.6587 -19.6500
     3.4723   3.4724   3.4808   3.4809   8.6762   8.7092   9.3948   9.3948
     9.5320   9.5320   9.7836   9.8429  10.4484  10.4484  10.6535  10.6535
    12.4281  12.5150  12.9773  12.9775  13.7721  13.9540  14.0277  14.0277
    14.5112  14.5116  15.5888  15.5888  15.6444

          k = 0.3000 0.5196 0.0000 (  2361 PWs)   bands (ev):

   -43.5770 -43.5769 -43.5547 -43.5544 -43.4063 -43.3989 -20.0801 -20.0588
   -20.0177 -19.9995 -19.9804 -19.9690 -19.9381 -19.9326 -19.9131 -19.8982
   -19.8739 -19.8665 -19.7350 -19.6955 -19.6929 -19.6735 -19.6577 -19.6459
     3.4212   3.4302   3.4713   3.4808   8.5974   8.6406   9.3370   9.4792
     9.5427   9.6770   9.8327   9.9098  10.4125  10.4478  10.6324  10.6388
    12.4225  12.4293  13.0017  13.0242  13.6313  13.8906  13.9892  14.0083
    14.3555  14.7429  15.6411  15.6697  15.7413

          k = 0.2666 0.4618 0.0000 (  2365 PWs)   bands (ev):

   -43.5802 -43.5795 -43.5577 -43.5571 -43.4083 -43.4010 -20.0889 -20.0690
   -20.0226 -20.0157 -19.9853 -19.9741 -19.9259 -19.9137 -19.8914 -19.8714
   -19.8496 -19.8376 -19.7386 -19.6972 -19.6717 -19.6634 -19.6523 -19.6328
     3.3563   3.3619   3.3686   3.3733   8.5460   8.5990   9.2480   9.4039
     9.7655   9.9226   9.9496  10.0639  10.2782  10.4604  10.5317  10.6370
    12.2676  12.4512  12.9467  13.1435  13.4337  13.6495  13.8953  13.9609
    14.3503  14.8080  15.6002  15.6555  15.8992

          k = 0.2333 0.4041 0.0000 (  2359 PWs)   bands (ev):

   -43.5854 -43.5840 -43.5632 -43.5613 -43.4118 -43.4045 -20.0926 -20.0905
   -20.0218 -20.0045 -19.9764 -19.9637 -19.9242 -19.9020 -19.8500 -19.8434
   -19.8186 -19.8096 -19.7286 -19.6911 -19.6624 -19.6524 -19.6327 -19.6155
     3.1231   3.1405   3.2938   3.3102   8.6238   8.6880   9.1545   9.3554
     9.9122  10.0726  10.1116  10.1260  10.2677  10.3434  10.5037  10.6905
    12.1511  12.5558  12.7510  13.1951  13.3296  13.3614  13.8505  13.9107
    14.4307  14.7186  15.3070  15.6569  15.7747

          k = 0.2000 0.3464 0.0000 (  2357 PWs)   bands (ev):

   -43.5929 -43.5902 -43.5707 -43.5674 -43.4167 -43.4094 -20.1141 -20.0924
   -20.0224 -19.9728 -19.9572 -19.9357 -19.9049 -19.8916 -19.8143 -19.8116
   -19.7858 -19.7836 -19.7080 -19.6774 -19.6589 -19.6396 -19.6083 -19.5967
     2.7998   2.8247   3.2131   3.2387   8.8149   8.8836   9.0812   9.3504
     9.6020   9.9653  10.2029  10.3105  10.3984  10.5027  10.5706  10.7931
    12.1411  12.3959  12.8236  13.0451  13.1381  13.3475  13.8632  13.9602
    14.5512  14.5648  14.9923  15.4790  15.6540

          k = 0.1667 0.2886 0.0000 (  2353 PWs)   bands (ev):

   -43.6017 -43.5975 -43.5796 -43.5747 -43.4225 -43.4152 -20.1393 -20.0911
   -20.0291 -19.9363 -19.9276 -19.8929 -19.8682 -19.8671 -19.7832 -19.7779
   -19.7583 -19.7555 -19.6794 -19.6571 -19.6560 -19.6277 -19.5857 -19.5772
     2.4318   2.4661   3.1158   3.1563   8.9027   8.9988   9.0504   9.3723
     9.4038   9.8064  10.3742  10.5101  10.5303  10.6473  10.7397  10.9230
    12.0716  12.2305  12.8320  13.0394  13.1060  13.4495  13.8130  14.1377
    14.4265  14.6873  14.6982  15.1454  15.2319

          k = 0.1333 0.2309 0.0000 (  2327 PWs)   bands (ev):

   -43.6110 -43.6051 -43.5889 -43.5822 -43.4286 -43.4213 -20.1650 -20.0907
   -20.0446 -19.9202 -19.8729 -19.8413 -19.8259 -19.8200 -19.7528 -19.7501
   -19.7329 -19.7300 -19.6568 -19.6443 -19.6277 -19.6192 -19.5664 -19.5590
     2.0650   2.1095   3.0032   3.0641   8.5304   8.7734   9.0893   9.5240
     9.6656  10.0452  10.4972  10.5554  10.6259  10.8386  10.8946  11.0926
    11.8151  12.2218  12.8319  13.0965  13.3698  13.5797  13.7946  14.2918
    14.3556  14.4554  14.8134  14.8207  14.9191

          k = 0.1000 0.1732 0.0000 (  2313 PWs)   bands (ev):

   -43.6196 -43.6124 -43.5977 -43.5896 -43.4344 -43.4271 -20.1885 -20.0919
   -20.0635 -19.9106 -19.8153 -19.7888 -19.7767 -19.7697 -19.7287 -19.7277
   -19.7102 -19.7100 -19.6582 -19.6144 -19.6052 -19.5941 -19.5512 -19.5440
     1.7384   1.7925   2.8847   2.9692   8.1150   8.4263   9.2077   9.7047
    10.0688  10.3762  10.5435  10.6048  10.6345  10.9103  11.0909  11.2861
    11.6812  12.0217  13.1257  13.2870  13.5110  13.7053  13.8400  14.2377
    14.2735  14.5133  14.5833  14.6475  14.7327

          k = 0.0667 0.1155 0.0000 (  2311 PWs)   bands (ev):

   -43.6268 -43.6184 -43.6049 -43.5956 -43.4393 -43.4320 -20.2075 -20.0939
   -20.0803 -19.9061 -19.7623 -19.7438 -19.7298 -19.7261 -19.7138 -19.7102
   -19.6963 -19.6930 -19.6623 -19.6133 -19.5685 -19.5604 -19.5407 -19.5335
     1.4829   1.5448   2.7786   2.8848   7.7796   8.1276   9.3945   9.9310
    10.3106  10.3839  10.5144  10.6860  10.8365  11.0152  11.2947  11.4221
    11.6248  11.8237  13.4434  13.5287  13.5852  13.8059  13.8148  14.0930
    14.2646  14.5159  14.6319  14.6430  14.7382

          k = 0.0333 0.0577 0.0000 (  2315 PWs)   bands (ev):

   -43.6314 -43.6225 -43.6097 -43.5996 -43.4425 -43.4352 -20.2197 -20.0956
   -20.0916 -19.9044 -19.7203 -19.7134 -19.7052 -19.7002 -19.6966 -19.6947
   -19.6880 -19.6830 -19.6709 -19.6154 -19.5424 -19.5351 -19.5348 -19.5276
     1.3206   1.3875   2.7045   2.8261   7.5648   7.9304   9.6075  10.1679
    10.2956  10.3337  10.3709  10.7038  11.0316  11.3626  11.3996  11.4833
    11.5434  11.7144  13.6195  13.6560  13.7194  13.7233  13.8308  13.9660
    14.4708  14.5532  14.7004  14.7951  14.8360

          k = 0.0000 0.0000 0.0000 (  2317 PWs)   bands (ev):

   -43.6330 -43.6237 -43.6114 -43.6012 -43.4436 -43.4363 -20.2240 -20.0963
   -20.0955 -19.9041 -19.7025 -19.7025 -19.6972 -19.6972 -19.6859 -19.6859
   -19.6820 -19.6801 -19.6801 -19.6175 -19.5330 -19.5330 -19.5258 -19.5258
     1.2649   1.3335   2.6779   2.8050   7.4922   7.8622   9.7271  10.2748
    10.2748  10.3125  10.3125  10.5960  11.2721  11.4154  11.4155  11.5004
    11.5005  11.6937  13.6686  13.6686  13.6958  13.7977  13.7977  13.9531
    14.5910  14.5910  14.7332  14.7332  14.9428

     Writing output data file aiida.save\

     init_run     :      3.80s CPU      1.65s WALL (       1 calls)
     electrons    :    442.33s CPU    129.80s WALL (       1 calls)

     Called by init_run:
     wfcinit      :      0.00s CPU      0.00s WALL (       1 calls)
     wfcinit:atom :      0.53s CPU      0.15s WALL (      61 calls)
     wfcinit:wfcr :     31.89s CPU      9.51s WALL (      61 calls)
     potinit      :      0.94s CPU      0.24s WALL (       1 calls)
     hinit0       :      2.50s CPU      1.26s WALL (       1 calls)

     Called by electrons:
     c_bands      :    442.25s CPU    129.76s WALL (       1 calls)
     v_of_rho     :      0.08s CPU      0.04s WALL (       1 calls)
     v_h          :      0.00s CPU      0.00s WALL (       1 calls)
     v_xc         :      0.08s CPU      0.03s WALL (       1 calls)
     newd         :      0.36s CPU      0.11s WALL (       1 calls)
     PAW_pot      :      0.86s CPU      0.19s WALL (       1 calls)

     Called by c_bands:
     init_us_2    :      0.38s CPU      0.14s WALL (      61 calls)
     cegterg      :    402.11s CPU    117.79s WALL (     103 calls)

     Called by sum_band:

     Called by *egterg:
     h_psi        :    234.73s CPU     69.52s WALL (    1906 calls)
     s_psi        :     25.27s CPU      7.10s WALL (    1906 calls)
     g_psi        :      1.16s CPU      0.45s WALL (    1742 calls)
     cdiaghg      :     61.53s CPU     19.20s WALL (    1803 calls)
     cegterg:over :     43.89s CPU     12.07s WALL (    1742 calls)
     cegterg:upda :     33.88s CPU      9.07s WALL (    1742 calls)
     cegterg:last :     23.06s CPU      6.47s WALL (     269 calls)

     Called by h_psi:
     h_psi:pot    :    234.03s CPU     69.11s WALL (    1906 calls)
     h_psi:calbec :     24.44s CPU      6.96s WALL (    1906 calls)
     vloc_psi     :    183.66s CPU     55.19s WALL (    1906 calls)
     add_vuspsi   :     25.94s CPU      6.95s WALL (    1906 calls)

     General routines
     calbec       :     24.44s CPU      6.96s WALL (    1906 calls)
     fft          :      0.00s CPU      0.00s WALL (      12 calls)
     fftw         :    142.28s CPU     39.84s WALL (   85930 calls)
     davcio       :      0.31s CPU      0.19s WALL (     122 calls)

     Parallel routines

     PAW routines
     PAW_pot      :      0.86s CPU      0.19s WALL (       1 calls)

     PWSCF        :   7m30.39s CPU   2m15.80s WALL


   This run was terminated on:  17:27:59   22May2024            

=------------------------------------------------------------------------------=
   JOB DONE.
=------------------------------------------------------------------------------=
